ITEM: TIMESTEP
0
ITEM: NUMBER OF ENTRIES
500
ITEM: BOX BOUNDS pp pp pp
-2.121 2.121
-2.121 2.121
-2.121 2.121
ITEM: ENTRIES index c_1[1] c_1[2] c_1[3]
1 1 1 2
1 1 1 3
1 1 1 4
1 1 1 11
1 1 1 12
1 1 1 13
1 1 1 14
1 1 1 15
1 1 1 16
1 1 1 42
1 1 1 44
1 1 1 52
1 1 1 54
1 1 1 56
1 1 1 61
1 1 1 62
1 1 1 63
1 1 1 64
1 1 1 71
1 1 1 72
1 1 1 73
1 1 1 74
1 1 1 75
1 1 1 76
1 1 1 202
1 1 1 203
1 1 1 211
1 1 1 214
1 1 1 215
1 1 1 242
1 1 1 254
1 1 1 262
1 1 1 263
1 1 1 271
1 1 1 274
1 1 1 275
1 1 1 301
1 1 1 302
1 1 1 303
1 1 1 304
1 1 1 311
1 1 1 312
1 1 1 313
1 1 1 314
1 1 1 315
1 1 1 316
1 1 1 342
1 1 1 344
1 1 1 352
1 1 1 354
1 1 1 356
1 1 1 361
1 1 1 362
1 1 1 363
1 1 1 364
1 1 1 371
1 1 1 372
1 1 1 373
1 1 1 374
1 1 1 375
1 1 1 376
1 1 1 2
1 1 2 3
1 1 2 4
1 1 2 11
1 1 2 12
1 1 2 13
1 1 2 14
1 1 2 15
1 1 2 16
1 1 2 21
1 1 2 23
1 1 2 31
1 1 2 33
1 1 2 35
1 1 2 61
1 1 2 62
1 1 2 63
1 1 2 64
1 1 2 71
1 1 2 72
1 1 2 73
1 1 2 74
1 1 2 75
1 1 2 76
1 1 2 81
1 1 2 83
1 1 2 91
1 1 2 93
1 1 2 95
1 1 2 101
1 1 2 104
1 1 2 112
1 1 2 113
1 1 2 116
1 1 2 121
1 1 2 133
1 1 2 161
1 1 2 164
1 1 2 172
1 1 2 173
1 1 2 176
1 1 2 181
1 1 2 193
1 1 2 301
1 1 2 302
1 1 2 303
1 1 2 304
1 1 2 311
1 1 2 312
1 1 2 313
1 1 2 314
1 1 2 315
1 1 2 316
1 1 2 321
1 1 2 323
1 1 2 331
1 1 2 333
1 1 2 335
1 1 2 361
1 1 2 362
1 1 2 363
1 1 2 364
1 1 2 371
1 1 2 372
1 1 2 373
1 1 2 374
1 1 2 375
1 1 2 376
1 1 2 381
1 1 2 383
1 1 2 391
1 1 2 393
1 1 2 395
1 1 2 401
1 1 2 404
1 1 2 412
1 1 2 413
1 1 2 416
1 1 2 421
1 1 2 433
1 1 2 461
1 1 2 464
1 1 2 472
1 1 2 473
1 1 2 476
1 1 2 481
1 1 2 493
1 1 1 3
1 1 2 3
1 1 3 4
1 1 3 5
1 1 3 6
1 1 3 13
1 1 3 14
1 1 3 15
1 1 3 16
1 1 3 17
1 1 3 18
1 1 3 42
1 1 3 44
1 1 3 46
1 1 3 54
1 1 3 56
1 1 3 58
1 1 3 61
1 1 3 62
1 1 3 63
1 1 3 64
1 1 3 65
1 1 3 66
1 1 3 73
1 1 3 74
1 1 3 75
1 1 3 76
1 1 3 77
1 1 3 78
1 1 3 101
1 1 3 104
1 1 3 105
1 1 3 113
1 1 3 116
1 1 3 117
1 1 3 144
1 1 3 156
1 1 3 161
1 1 3 164
1 1 3 165
1 1 3 173
1 1 3 176
1 1 3 177
1 1 3 301
1 1 3 302
1 1 3 303
1 1 3 304
1 1 3 305
1 1 3 306
1 1 3 313
1 1 3 314
1 1 3 315
1 1 3 316
1 1 3 317
1 1 3 318
1 1 3 342
1 1 3 344
1 1 3 346
1 1 3 354
1 1 3 356
1 1 3 358
1 1 3 361
1 1 3 362
1 1 3 363
1 1 3 364
1 1 3 365
1 1 3 366
1 1 3 373
1 1 3 374
1 1 3 375
1 1 3 376
1 1 3 377
1 1 3 378
1 1 3 401
1 1 3 404
1 1 3 405
1 1 3 413
1 1 3 416
1 1 3 417
1 1 3 444
1 1 3 456
1 1 3 461
1 1 3 464
1 1 3 465
1 1 3 473
1 1 3 476
1 1 3 477
1 1 1 4
1 1 2 4
1 1 3 4
1 1 4 5
1 1 4 6
1 1 4 13
1 1 4 14
1 1 4 15
1 1 4 16
1 1 4 17
1 1 4 18
1 1 4 21
1 1 4 23
1 1 4 25
1 1 4 33
1 1 4 35
1 1 4 37
1 1 4 61
1 1 4 62
1 1 4 63
1 1 4 64
1 1 4 65
1 1 4 66
1 1 4 73
1 1 4 74
1 1 4 75
1 1 4 76
1 1 4 77
1 1 4 78
1 1 4 81
1 1 4 83
1 1 4 85
1 1 4 93
1 1 4 95
1 1 4 97
1 1 4 202
1 1 4 203
1 1 4 206
1 1 4 214
1 1 4 215
1 1 4 218
1 1 4 223
1 1 4 235
1 1 4 262
1 1 4 263
1 1 4 266
1 1 4 274
1 1 4 275
1 1 4 278
1 1 4 283
1 1 4 295
1 1 4 301
1 1 4 302
1 1 4 303
1 1 4 304
1 1 4 305
1 1 4 306
1 1 4 313
1 1 4 314
1 1 4 315
1 1 4 316
1 1 4 317
1 1 4 318
1 1 4 321
1 1 4 323
1 1 4 325
1 1 4 333
1 1 4 335
1 1 4 337
1 1 4 361
1 1 4 362
1 1 4 363
1 1 4 364
1 1 4 365
1 1 4 366
1 1 4 373
1 1 4 374
1 1 4 375
1 1 4 376
1 1 4 377
1 1 4 378
1 1 4 381
1 1 4 383
1 1 4 385
1 1 4 393
1 1 4 395
1 1 4 397
1 1 3 5
1 1 4 5
1 1 5 6
1 1 5 7
1 1 5 8
1 1 5 15
1 1 5 16
1 1 5 17
1 1 5 18
1 1 5 19
1 1 5 20
1 1 5 44
1 1 5 46
1 1 5 48
1 1 5 56
1 1 5 58
1 1 5 60
1 1 5 63
1 1 5 64
1 1 5 65
1 1 5 66
1 1 5 67
1 1 5 68
1 1 5 75
1 1 5 76
1 1 5 77
1 1 5 78
1 1 5 79
1 1 5 80
1 1 5 203
1 1 5 206
1 1 5 207
1 1 5 215
1 1 5 218
1 1 5 219
1 1 5 246
1 1 5 258
1 1 5 263
1 1 5 266
1 1 5 267
1 1 5 275
1 1 5 278
1 1 5 279
1 1 5 303
1 1 5 304
1 1 5 305
1 1 5 306
1 1 5 307
1 1 5 308
1 1 5 315
1 1 5 316
1 1 5 317
1 1 5 318
1 1 5 319
1 1 5 320
1 1 5 344
1 1 5 346
1 1 5 348
1 1 5 356
1 1 5 358
1 1 5 360
1 1 5 363
1 1 5 364
1 1 5 365
1 1 5 366
1 1 5 367
1 1 5 368
1 1 5 375
1 1 5 376
1 1 5 377
1 1 5 378
1 1 5 379
1 1 5 380
1 1 3 6
1 1 4 6
1 1 5 6
1 1 6 7
1 1 6 8
1 1 6 15
1 1 6 16
1 1 6 17
1 1 6 18
1 1 6 19
1 1 6 20
1 1 6 23
1 1 6 25
1 1 6 27
1 1 6 35
1 1 6 37
1 1 6 39
1 1 6 63
1 1 6 64
1 1 6 65
1 1 6 66
1 1 6 67
1 1 6 68
1 1 6 75
1 1 6 76
1 1 6 77
1 1 6 78
1 1 6 79
1 1 6 80
1 1 6 83
1 1 6 85
1 1 6 87
1 1 6 95
1 1 6 97
1 1 6 99
1 1 6 104
1 1 6 105
1 1 6 108
1 1 6 116
1 1 6 117
1 1 6 120
1 1 6 125
1 1 6 137
1 1 6 164
1 1 6 165
1 1 6 168
1 1 6 176
1 1 6 177
1 1 6 180
1 1 6 185
1 1 6 197
1 1 6 303
1 1 6 304
1 1 6 305
1 1 6 306
1 1 6 307
1 1 6 308
1 1 6 315
1 1 6 316
1 1 6 317
1 1 6 318
1 1 6 319
1 1 6 320
1 1 6 323
1 1 6 325
1 1 6 327
1 1 6 335
1 1 6 337
1 1 6 339
1 1 6 363
1 1 6 364
1 1 6 365
1 1 6 366
1 1 6 367
1 1 6 368
1 1 6 375
1 1 6 376
1 1 6 377
1 1 6 378
1 1 6 379
1 1 6 380
1 1 6 383
1 1 6 385
1 1 6 387
1 1 6 395
1 1 6 397
1 1 6 399
1 1 6 404
1 1 6 405
1 1 6 408
1 1 6 416
1 1 6 417
1 1 6 420
1 1 6 425
1 1 6 437
1 1 6 464
1 1 6 465
1 1 6 468
1 1 6 476
1 1 6 477
1 1 6 480
1 1 6 485
1 1 6 497
1 1 5 7
1 1 6 7
1 1 7 8
1 1 7 9
1 1 7 10
1 1 7 17
1 1 7 18
1 1 7 19
1 1 7 20
1 1 7 46
1 1 7 48
1 1 7 50
1 1 7 58
1 1 7 60
1 1 7 65
1 1 7 66
1 1 7 67
1 1 7 68
1 1 7 69
1 1 7 70
1 1 7 77
1 1 7 78
1 1 7 79
1 1 7 80
1 1 7 105
1 1 7 108
1 1 7 109
1 1 7 117
1 1 7 120
1 1 7 148
1 1 7 160
1 1 7 165
1 1 7 168
1 1 7 169
1 1 7 177
1 1 7 180
1 1 7 305
1 1 7 306
1 1 7 307
1 1 7 308
1 1 7 309
1 1 7 310
1 1 7 317
1 1 7 318
1 1 7 319
1 1 7 320
1 1 7 346
1 1 7 348
1 1 7 350
1 1 7 358
1 1 7 360
1 1 7 365
1 1 7 366
1 1 7 367
1 1 7 368
1 1 7 369
1 1 7 370
1 1 7 377
1 1 7 378
1 1 7 379
1 1 7 380
1 1 7 405
1 1 7 408
1 1 7 409
1 1 7 417
1 1 7 420
1 1 7 448
1 1 7 460
1 1 7 465
1 1 7 468
1 1 7 469
1 1 7 477
1 1 7 480
1 1 5 8
1 1 6 8
1 1 7 8
1 1 8 9
1 1 8 10
1 1 8 17
1 1 8 18
1 1 8 19
1 1 8 20
1 1 8 25
1 1 8 27
1 1 8 29
1 1 8 37
1 1 8 39
1 1 8 65
1 1 8 66
1 1 8 67
1 1 8 68
1 1 8 69
1 1 8 70
1 1 8 77
1 1 8 78
1 1 8 79
1 1 8 80
1 1 8 85
1 1 8 87
1 1 8 89
1 1 8 97
1 1 8 99
1 1 8 206
1 1 8 207
1 1 8 210
1 1 8 218
1 1 8 219
1 1 8 227
1 1 8 239
1 1 8 266
1 1 8 267
1 1 8 270
1 1 8 278
1 1 8 279
1 1 8 287
1 1 8 299
1 1 8 305
1 1 8 306
1 1 8 307
1 1 8 308
1 1 8 309
1 1 8 310
1 1 8 317
1 1 8 318
1 1 8 319
1 1 8 320
1 1 8 325
1 1 8 327
1 1 8 329
1 1 8 337
1 1 8 339
1 1 8 365
1 1 8 366
1 1 8 367
1 1 8 368
1 1 8 369
1 1 8 370
1 1 8 377
1 1 8 378
1 1 8 379
1 1 8 380
1 1 8 385
1 1 8 387
1 1 8 389
1 1 8 397
1 1 8 399
1 1 7 9
1 1 8 9
1 1 9 10
1 1 9 11
1 1 9 12
1 1 9 19
1 1 9 20
1 1 9 48
1 1 9 50
1 1 9 52
1 1 9 60
1 1 9 67
1 1 9 68
1 1 9 69
1 1 9 70
1 1 9 71
1 1 9 72
1 1 9 79
1 1 9 80
1 1 9 207
1 1 9 210
1 1 9 211
1 1 9 219
1 1 9 250
1 1 9 267
1 1 9 270
1 1 9 271
1 1 9 279
1 1 9 307
1 1 9 308
1 1 9 309
1 1 9 310
1 1 9 311
1 1 9 312
1 1 9 319
1 1 9 320
1 1 9 348
1 1 9 350
1 1 9 352
1 1 9 360
1 1 9 367
1 1 9 368
1 1 9 369
1 1 9 370
1 1 9 371
1 1 9 372
1 1 9 379
1 1 9 380
1 1 7 10
1 1 8 10
1 1 9 10
1 1 10 11
1 1 10 12
1 1 10 19
1 1 10 20
1 1 10 27
1 1 10 29
1 1 10 31
1 1 10 39
1 1 10 67
1 1 10 68
1 1 10 69
1 1 10 70
1 1 10 71
1 1 10 72
1 1 10 79
1 1 10 80
1 1 10 87
1 1 10 89
1 1 10 91
1 1 10 99
1 1 10 108
1 1 10 109
1 1 10 112
1 1 10 120
1 1 10 129
1 1 10 168
1 1 10 169
1 1 10 172
1 1 10 180
1 1 10 189
1 1 10 307
1 1 10 308
1 1 10 309
1 1 10 310
1 1 10 311
1 1 10 312
1 1 10 319
1 1 10 320
1 1 10 327
1 1 10 329
1 1 10 331
1 1 10 339
1 1 10 367
1 1 10 368
1 1 10 369
1 1 10 370
1 1 10 371
1 1 10 372
1 1 10 379
1 1 10 380
1 1 10 387
1 1 10 389
1 1 10 391
1 1 10 399
1 1 10 408
1 1 10 409
1 1 10 412
1 1 10 420
1 1 10 429
1 1 10 468
1 1 10 469
1 1 10 472
1 1 10 480
1 1 10 489
1 1 1 11
1 1 2 11
1 1 9 11
1 1 10 11
1 1 11 12
1 1 11 13
1 1 11 14
1 1 11 42
1 1 11 50
1 1 11 52
1 1 11 54
1 1 11 61
1 1 11 62
1 1 11 69
1 1 11 70
1 1 11 71
1 1 11 72
1 1 11 73
1 1 11 74
1 1 11 101
1 1 11 109
1 1 11 112
1 1 11 113
1 1 11 152
1 1 11 161
1 1 11 169
1 1 11 172
1 1 11 173
1 1 11 301
1 1 11 302
1 1 11 309
1 1 11 310
1 1 11 311
1 1 11 312
1 1 11 313
1 1 11 314
1 1 11 342
1 1 11 350
1 1 11 352
1 1 11 354
1 1 11 361
1 1 11 362
1 1 11 369
1 1 11 370
1 1 11 371
1 1 11 372
1 1 11 373
1 1 11 374
1 1 11 401
1 1 11 409
1 1 11 412
1 1 11 413
1 1 11 452
1 1 11 461
1 1 11 469
1 1 11 472
1 1 11 473
1 1 1 12
1 1 2 12
1 1 9 12
1 1 10 12
1 1 11 12
1 1 12 13
1 1 12 14
1 1 12 21
1 1 12 29
1 1 12 31
1 1 12 33
1 1 12 61
1 1 12 62
1 1 12 69
1 1 12 70
1 1 12 71
1 1 12 72
1 1 12 73
1 1 12 74
1 1 12 81
1 1 12 89
1 1 12 91
1 1 12 93
1 1 12 202
1 1 12 210
1 1 12 211
1 1 12 214
1 1 12 231
1 1 12 262
1 1 12 270
1 1 12 271
1 1 12 274
1 1 12 291
1 1 12 301
1 1 12 302
1 1 12 309
1 1 12 310
1 1 12 311
1 1 12 312
1 1 12 313
1 1 12 314
1 1 12 321
1 1 12 329
1 1 12 331
1 1 12 333
1 1 12 361
1 1 12 362
1 1 12 369
1 1 12 370
1 1 12 371
1 1 12 372
1 1 12 373
1 1 12 374
1 1 12 381
1 1 12 389
1 1 12 391
1 1 12 393
1 1 1 13
1 1 2 13
1 1 3 13
1 1 4 13
1 1 11 13
1 1 12 13
1 1 13 14
1 1 13 15
1 1 13 16
1 1 13 42
1 1 13 44
1 1 13 52
1 1 13 54
1 1 13 56
1 1 13 61
1 1 13 62
1 1 13 63
1 1 13 64
1 1 13 71
1 1 13 72
1 1 13 73
1 1 13 74
1 1 13 75
1 1 13 76
1 1 13 202
1 1 13 203
1 1 13 211
1 1 13 214
1 1 13 215
1 1 13 242
1 1 13 254
1 1 13 262
1 1 13 263
1 1 13 271
1 1 13 274
1 1 13 275
1 1 13 301
1 1 13 302
1 1 13 303
1 1 13 304
1 1 13 311
1 1 13 312
1 1 13 313
1 1 13 314
1 1 13 315
1 1 13 316
1 1 13 342
1 1 13 344
1 1 13 352
1 1 13 354
1 1 13 356
1 1 13 361
1 1 13 362
1 1 13 363
1 1 13 364
1 1 13 371
1 1 13 372
1 1 13 373
1 1 13 374
1 1 13 375
1 1 13 376
1 1 1 14
1 1 2 14
1 1 3 14
1 1 4 14
1 1 11 14
1 1 12 14
1 1 13 14
1 1 14 15
1 1 14 16
1 1 14 21
1 1 14 23
1 1 14 31
1 1 14 33
1 1 14 35
1 1 14 61
1 1 14 62
1 1 14 63
1 1 14 64
1 1 14 71
1 1 14 72
1 1 14 73
1 1 14 74
1 1 14 75
1 1 14 76
1 1 14 81
1 1 14 83
1 1 14 91
1 1 14 93
1 1 14 95
1 1 14 101
1 1 14 104
1 1 14 112
1 1 14 113
1 1 14 116
1 1 14 121
1 1 14 133
1 1 14 161
1 1 14 164
1 1 14 172
1 1 14 173
1 1 14 176
1 1 14 181
1 1 14 193
1 1 14 301
1 1 14 302
1 1 14 303
1 1 14 304
1 1 14 311
1 1 14 312
1 1 14 313
1 1 14 314
1 1 14 315
1 1 14 316
1 1 14 321
1 1 14 323
1 1 14 331
1 1 14 333
1 1 14 335
1 1 14 361
1 1 14 362
1 1 14 363
1 1 14 364
1 1 14 371
1 1 14 372
1 1 14 373
1 1 14 374
1 1 14 375
1 1 14 376
1 1 14 381
1 1 14 383
1 1 14 391
1 1 14 393
1 1 14 395
1 1 14 401
1 1 14 404
1 1 14 412
1 1 14 413
1 1 14 416
1 1 14 421
1 1 14 433
1 1 14 461
1 1 14 464
1 1 14 472
1 1 14 473
1 1 14 476
1 1 14 481
1 1 14 493
1 1 1 15
1 1 2 15
1 1 3 15
1 1 4 15
1 1 5 15
1 1 6 15
1 1 13 15
1 1 14 15
1 1 15 16
1 1 15 17
1 1 15 18
1 1 15 42
1 1 15 44
1 1 15 46
1 1 15 54
1 1 15 56
1 1 15 58
1 1 15 61
1 1 15 62
1 1 15 63
1 1 15 64
1 1 15 65
1 1 15 66
1 1 15 73
1 1 15 74
1 1 15 75
1 1 15 76
1 1 15 77
1 1 15 78
1 1 15 101
1 1 15 104
1 1 15 105
1 1 15 113
1 1 15 116
1 1 15 117
1 1 15 144
1 1 15 156
1 1 15 161
1 1 15 164
1 1 15 165
1 1 15 173
1 1 15 176
1 1 15 177
1 1 15 301
1 1 15 302
1 1 15 303
1 1 15 304
1 1 15 305
1 1 15 306
1 1 15 313
1 1 15 314
1 1 15 315
1 1 15 316
1 1 15 317
1 1 15 318
1 1 15 342
1 1 15 344
1 1 15 346
1 1 15 354
1 1 15 356
1 1 15 358
1 1 15 361
1 1 15 362
1 1 15 363
1 1 15 364
1 1 15 365
1 1 15 366
1 1 15 373
1 1 15 374
1 1 15 375
1 1 15 376
1 1 15 377
1 1 15 378
1 1 15 401
1 1 15 404
1 1 15 405
1 1 15 413
1 1 15 416
1 1 15 417
1 1 15 444
1 1 15 456
1 1 15 461
1 1 15 464
1 1 15 465
1 1 15 473
1 1 15 476
1 1 15 477
1 1 1 16
1 1 2 16
1 1 3 16
1 1 4 16
1 1 5 16
1 1 6 16
1 1 13 16
1 1 14 16
1 1 15 16
1 1 16 17
1 1 16 18
1 1 16 21
1 1 16 23
1 1 16 25
1 1 16 33
1 1 16 35
1 1 16 37
1 1 16 61
1 1 16 62
1 1 16 63
1 1 16 64
1 1 16 65
1 1 16 66
1 1 16 73
1 1 16 74
1 1 16 75
1 1 16 76
1 1 16 77
1 1 16 78
1 1 16 81
1 1 16 83
1 1 16 85
1 1 16 93
1 1 16 95
1 1 16 97
1 1 16 202
1 1 16 203
1 1 16 206
1 1 16 214
1 1 16 215
1 1 16 218
1 1 16 223
1 1 16 235
1 1 16 262
1 1 16 263
1 1 16 266
1 1 16 274
1 1 16 275
1 1 16 278
1 1 16 283
1 1 16 295
1 1 16 301
1 1 16 302
1 1 16 303
1 1 16 304
1 1 16 305
1 1 16 306
1 1 16 313
1 1 16 314
1 1 16 315
1 1 16 316
1 1 16 317
1 1 16 318
1 1 16 321
1 1 16 323
1 1 16 325
1 1 16 333
1 1 16 335
1 1 16 337
1 1 16 361
1 1 16 362
1 1 16 363
1 1 16 364
1 1 16 365
1 1 16 366
1 1 16 373
1 1 16 374
1 1 16 375
1 1 16 376
1 1 16 377
1 1 16 378
1 1 16 381
1 1 16 383
1 1 16 385
1 1 16 393
1 1 16 395
1 1 16 397
1 1 3 17
1 1 4 17
1 1 5 17
1 1 6 17
1 1 7 17
1 1 8 17
1 1 15 17
1 1 16 17
1 1 17 18
1 1 17 19
1 1 17 20
1 1 17 44
1 1 17 46
1 1 17 48
1 1 17 56
1 1 17 58
1 1 17 60
1 1 17 63
1 1 17 64
1 1 17 65
1 1 17 66
1 1 17 67
1 1 17 68
1 1 17 75
1 1 17 76
1 1 17 77
1 1 17 78
1 1 17 79
1 1 17 80
1 1 17 203
1 1 17 206
1 1 17 207
1 1 17 215
1 1 17 218
1 1 17 219
1 1 17 246
1 1 17 258
1 1 17 263
1 1 17 266
1 1 17 267
1 1 17 275
1 1 17 278
1 1 17 279
1 1 17 303
1 1 17 304
1 1 17 305
1 1 17 306
1 1 17 307
1 1 17 308
1 1 17 315
1 1 17 316
1 1 17 317
1 1 17 318
1 1 17 319
1 1 17 320
1 1 17 344
1 1 17 346
1 1 17 348
1 1 17 356
1 1 17 358
1 1 17 360
1 1 17 363
1 1 17 364
1 1 17 365
1 1 17 366
1 1 17 367
1 1 17 368
1 1 17 375
1 1 17 376
1 1 17 377
1 1 17 378
1 1 17 379
1 1 17 380
1 1 3 18
1 1 4 18
1 1 5 18
1 1 6 18
1 1 7 18
1 1 8 18
1 1 15 18
1 1 16 18
1 1 17 18
1 1 18 19
1 1 18 20
1 1 18 23
1 1 18 25
1 1 18 27
1 1 18 35
1 1 18 37
1 1 18 39
1 1 18 63
1 1 18 64
1 1 18 65
1 1 18 66
1 1 18 67
1 1 18 68
1 1 18 75
1 1 18 76
1 1 18 77
1 1 18 78
1 1 18 79
1 1 18 80
1 1 18 83
1 1 18 85
1 1 18 87
1 1 18 95
1 1 18 97
1 1 18 99
1 1 18 104
1 1 18 105
1 1 18 108
1 1 18 116
1 1 18 117
1 1 18 120
1 1 18 125
1 1 18 137
1 1 18 164
1 1 18 165
1 1 18 168
1 1 18 176
1 1 18 177
1 1 18 180
1 1 18 185
1 1 18 197
1 1 18 303
1 1 18 304
1 1 18 305
1 1 18 306
1 1 18 307
1 1 18 308
1 1 18 315
1 1 18 316
1 1 18 317
1 1 18 318
1 1 18 319
1 1 18 320
1 1 18 323
1 1 18 325
1 1 18 327
1 1 18 335
1 1 18 337
1 1 18 339
1 1 18 363
1 1 18 364
1 1 18 365
1 1 18 366
1 1 18 367
1 1 18 368
1 1 18 375
1 1 18 376
1 1 18 377
1 1 18 378
1 1 18 379
1 1 18 380
1 1 18 383
1 1 18 385
1 1 18 387
1 1 18 395
1 1 18 397
1 1 18 399
1 1 18 404
1 1 18 405
1 1 18 408
1 1 18 416
1 1 18 417
1 1 18 420
1 1 18 425
1 1 18 437
1 1 18 464
1 1 18 465
1 1 18 468
1 1 18 476
1 1 18 477
1 1 18 480
1 1 18 485
1 1 18 497
1 1 5 19
1 1 6 19
1 1 7 19
1 1 8 19
1 1 9 19
1 1 10 19
1 1 17 19
1 1 18 19
1 1 19 20
1 1 19 46
1 1 19 48
1 1 19 50
1 1 19 58
1 1 19 60
1 1 19 65
1 1 19 66
1 1 19 67
1 1 19 68
1 1 19 69
1 1 19 70
1 1 19 77
1 1 19 78
1 1 19 79
1 1 19 80
1 1 19 105
1 1 19 108
1 1 19 109
1 1 19 117
1 1 19 120
1 1 19 148
1 1 19 160
1 1 19 165
1 1 19 168
1 1 19 169
1 1 19 177
1 1 19 180
1 1 19 305
1 1 19 306
1 1 19 307
1 1 19 308
1 1 19 309
1 1 19 310
1 1 19 317
1 1 19 318
1 1 19 319
1 1 19 320
1 1 19 346
1 1 19 348
1 1 19 350
1 1 19 358
1 1 19 360
1 1 19 365
1 1 19 366
1 1 19 367
1 1 19 368
1 1 19 369
1 1 19 370
1 1 19 377
1 1 19 378
1 1 19 379
1 1 19 380
1 1 19 405
1 1 19 408
1 1 19 409
1 1 19 417
1 1 19 420
1 1 19 448
1 1 19 460
1 1 19 465
1 1 19 468
1 1 19 469
1 1 19 477
1 1 19 480
1 1 5 20
1 1 6 20
1 1 7 20
1 1 8 20
1 1 9 20
1 1 10 20
1 1 17 20
1 1 18 20
1 1 19 20
1 1 20 25
1 1 20 27
1 1 20 29
1 1 20 37
1 1 20 39
1 1 20 65
1 1 20 66
1 1 20 67
1 1 20 68
1 1 20 69
1 1 20 70
1 1 20 77
1 1 20 78
1 1 20 79
1 1 20 80
1 1 20 85
1 1 20 87
1 1 20 89
1 1 20 97
1 1 20 99
1 1 20 206
1 1 20 207
1 1 20 210
1 1 20 218
1 1 20 219
1 1 20 227
1 1 20 239
1 1 20 266
1 1 20 267
1 1 20 270
1 1 20 278
1 1 20 279
1 1 20 287
1 1 20 299
1 1 20 305
1 1 20 306
1 1 20 307
1 1 20 308
1 1 20 309
1 1 20 310
1 1 20 317
1 1 20 318
1 1 20 319
1 1 20 320
1 1 20 325
1 1 20 327
1 1 20 329
1 1 20 337
1 1 20 339
1 1 20 365
1 1 20 366
1 1 20 367
1 1 20 368
1 1 20 369
1 1 20 370
1 1 20 377
1 1 20 378
1 1 20 379
1 1 20 380
1 1 20 385
1 1 20 387
1 1 20 389
1 1 20 397
1 1 20 399
1 1 2 21
1 1 4 21
1 1 12 21
1 1 14 21
1 1 16 21
1 1 21 22
1 1 21 23
1 1 21 24
1 1 21 31
1 1 21 32
1 1 21 33
1 1 21 34
1 1 21 35
1 1 21 36
1 1 21 62
1 1 21 64
1 1 21 72
1 1 21 74
1 1 21 76
1 1 21 81
1 1 21 82
1 1 21 83
1 1 21 84
1 1 21 91
1 1 21 92
1 1 21 93
1 1 21 94
1 1 21 95
1 1 21 96
1 1 21 202
1 1 21 214
1 1 21 222
1 1 21 223
1 1 21 231
1 1 21 234
1 1 21 235
1 1 21 262
1 1 21 274
1 1 21 282
1 1 21 283
1 1 21 291
1 1 21 294
1 1 21 295
1 1 21 302
1 1 21 304
1 1 21 312
1 1 21 314
1 1 21 316
1 1 21 321
1 1 21 322
1 1 21 323
1 1 21 324
1 1 21 331
1 1 21 332
1 1 21 333
1 1 21 334
1 1 21 335
1 1 21 336
1 1 21 362
1 1 21 364
1 1 21 372
1 1 21 374
1 1 21 376
1 1 21 381
1 1 21 382
1 1 21 383
1 1 21 384
1 1 21 391
1 1 21 392
1 1 21 393
1 1 21 394
1 1 21 395
1 1 21 396
1 1 21 22
1 1 22 23
1 1 22 24
1 1 22 31
1 1 22 32
1 1 22 33
1 1 22 34
1 1 22 35
1 1 22 36
1 1 22 41
1 1 22 43
1 1 22 51
1 1 22 53
1 1 22 55
1 1 22 81
1 1 22 82
1 1 22 83
1 1 22 84
1 1 22 91
1 1 22 92
1 1 22 93
1 1 22 94
1 1 22 95
1 1 22 96
1 1 22 121
1 1 22 124
1 1 22 132
1 1 22 133
1 1 22 136
1 1 22 141
1 1 22 153
1 1 22 181
1 1 22 184
1 1 22 192
1 1 22 193
1 1 22 196
1 1 22 321
1 1 22 322
1 1 22 323
1 1 22 324
1 1 22 331
1 1 22 332
1 1 22 333
1 1 22 334
1 1 22 335
1 1 22 336
1 1 22 341
1 1 22 343
1 1 22 351
1 1 22 353
1 1 22 355
1 1 22 381
1 1 22 382
1 1 22 383
1 1 22 384
1 1 22 391
1 1 22 392
1 1 22 393
1 1 22 394
1 1 22 395
1 1 22 396
1 1 22 421
1 1 22 424
1 1 22 432
1 1 22 433
1 1 22 436
1 1 22 441
1 1 22 453
1 1 22 481
1 1 22 484
1 1 22 492
1 1 22 493
1 1 22 496
1 1 2 23
1 1 4 23
1 1 6 23
1 1 14 23
1 1 16 23
1 1 18 23
1 1 21 23
1 1 22 23
1 1 23 24
1 1 23 25
1 1 23 26
1 1 23 33
1 1 23 34
1 1 23 35
1 1 23 36
1 1 23 37
1 1 23 38
1 1 23 62
1 1 23 64
1 1 23 66
1 1 23 74
1 1 23 76
1 1 23 78
1 1 23 81
1 1 23 82
1 1 23 83
1 1 23 84
1 1 23 85
1 1 23 86
1 1 23 93
1 1 23 94
1 1 23 95
1 1 23 96
1 1 23 97
1 1 23 98
1 1 23 104
1 1 23 116
1 1 23 121
1 1 23 124
1 1 23 125
1 1 23 133
1 1 23 136
1 1 23 137
1 1 23 164
1 1 23 176
1 1 23 181
1 1 23 184
1 1 23 185
1 1 23 193
1 1 23 196
1 1 23 197
1 1 23 302
1 1 23 304
1 1 23 306
1 1 23 314
1 1 23 316
1 1 23 318
1 1 23 321
1 1 23 322
1 1 23 323
1 1 23 324
1 1 23 325
1 1 23 326
1 1 23 333
1 1 23 334
1 1 23 335
1 1 23 336
1 1 23 337
1 1 23 338
1 1 23 362
1 1 23 364
1 1 23 366
1 1 23 374
1 1 23 376
1 1 23 378
1 1 23 381
1 1 23 382
1 1 23 383
1 1 23 384
1 1 23 385
1 1 23 386
1 1 23 393
1 1 23 394
1 1 23 395
1 1 23 396
1 1 23 397
1 1 23 398
1 1 23 404
1 1 23 416
1 1 23 421
1 1 23 424
1 1 23 425
1 1 23 433
1 1 23 436
1 1 23 437
1 1 23 464
1 1 23 476
1 1 23 481
1 1 23 484
1 1 23 485
1 1 23 493
1 1 23 496
1 1 23 497
1 1 21 24
1 1 22 24
1 1 23 24
1 1 24 25
1 1 24 26
1 1 24 33
1 1 24 34
1 1 24 35
1 1 24 36
1 1 24 37
1 1 24 38
1 1 24 41
1 1 24 43
1 1 24 45
1 1 24 53
1 1 24 55
1 1 24 57
1 1 24 81
1 1 24 82
1 1 24 83
1 1 24 84
1 1 24 85
1 1 24 86
1 1 24 93
1 1 24 94
1 1 24 95
1 1 24 96
1 1 24 97
1 1 24 98
1 1 24 222
1 1 24 223
1 1 24 226
1 1 24 234
1 1 24 235
1 1 24 238
1 1 24 243
1 1 24 255
1 1 24 282
1 1 24 283
1 1 24 286
1 1 24 294
1 1 24 295
1 1 24 298
1 1 24 321
1 1 24 322
1 1 24 323
1 1 24 324
1 1 24 325
1 1 24 326
1 1 24 333
1 1 24 334
1 1 24 335
1 1 24 336
1 1 24 337
1 1 24 338
1 1 24 341
1 1 24 343
1 1 24 345
1 1 24 353
1 1 24 355
1 1 24 357
1 1 24 381
1 1 24 382
1 1 24 383
1 1 24 384
1 1 24 385
1 1 24 386
1 1 24 393
1 1 24 394
1 1 24 395
1 1 24 396
1 1 24 397
1 1 24 398
1 1 4 25
1 1 6 25
1 1 8 25
1 1 16 25
1 1 18 25
1 1 20 25
1 1 23 25
1 1 24 25
1 1 25 26
1 1 25 27
1 1 25 28
1 1 25 35
1 1 25 36
1 1 25 37
1 1 25 38
1 1 25 39
1 1 25 40
1 1 25 64
1 1 25 66
1 1 25 68
1 1 25 76
1 1 25 78
1 1 25 80
1 1 25 83
1 1 25 84
1 1 25 85
1 1 25 86
1 1 25 87
1 1 25 88
1 1 25 95
1 1 25 96
1 1 25 97
1 1 25 98
1 1 25 99
1 1 25 100
1 1 25 206
1 1 25 218
1 1 25 223
1 1 25 226
1 1 25 227
1 1 25 235
1 1 25 238
1 1 25 239
1 1 25 266
1 1 25 278
1 1 25 283
1 1 25 286
1 1 25 287
1 1 25 295
1 1 25 298
1 1 25 299
1 1 25 304
1 1 25 306
1 1 25 308
1 1 25 316
1 1 25 318
1 1 25 320
1 1 25 323
1 1 25 324
1 1 25 325
1 1 25 326
1 1 25 327
1 1 25 328
1 1 25 335
1 1 25 336
1 1 25 337
1 1 25 338
1 1 25 339
1 1 25 340
1 1 25 364
1 1 25 366
1 1 25 368
1 1 25 376
1 1 25 378
1 1 25 380
1 1 25 383
1 1 25 384
1 1 25 385
1 1 25 386
1 1 25 387
1 1 25 388
1 1 25 395
1 1 25 396
1 1 25 397
1 1 25 398
1 1 25 399
1 1 25 400
1 1 23 26
1 1 24 26
1 1 25 26
1 1 26 27
1 1 26 28
1 1 26 35
1 1 26 36
1 1 26 37
1 1 26 38
1 1 26 39
1 1 26 40
1 1 26 43
1 1 26 45
1 1 26 47
1 1 26 55
1 1 26 57
1 1 26 59
1 1 26 83
1 1 26 84
1 1 26 85
1 1 26 86
1 1 26 87
1 1 26 88
1 1 26 95
1 1 26 96
1 1 26 97
1 1 26 98
1 1 26 99
1 1 26 100
1 1 26 124
1 1 26 125
1 1 26 128
1 1 26 136
1 1 26 137
1 1 26 140
1 1 26 145
1 1 26 157
1 1 26 184
1 1 26 185
1 1 26 188
1 1 26 196
1 1 26 197
1 1 26 200
1 1 26 323
1 1 26 324
1 1 26 325
1 1 26 326
1 1 26 327
1 1 26 328
1 1 26 335
1 1 26 336
1 1 26 337
1 1 26 338
1 1 26 339
1 1 26 340
1 1 26 343
1 1 26 345
1 1 26 347
1 1 26 355
1 1 26 357
1 1 26 359
1 1 26 383
1 1 26 384
1 1 26 385
1 1 26 386
1 1 26 387
1 1 26 388
1 1 26 395
1 1 26 396
1 1 26 397
1 1 26 398
1 1 26 399
1 1 26 400
1 1 26 424
1 1 26 425
1 1 26 428
1 1 26 436
1 1 26 437
1 1 26 440
1 1 26 445
1 1 26 457
1 1 26 484
1 1 26 485
1 1 26 488
1 1 26 496
1 1 26 497
1 1 26 500
1 1 6 27
1 1 8 27
1 1 10 27
1 1 18 27
1 1 20 27
1 1 25 27
1 1 26 27
1 1 27 28
1 1 27 29
1 1 27 30
1 1 27 37
1 1 27 38
1 1 27 39
1 1 27 40
1 1 27 66
1 1 27 68
1 1 27 70
1 1 27 78
1 1 27 80
1 1 27 85
1 1 27 86
1 1 27 87
1 1 27 88
1 1 27 89
1 1 27 90
1 1 27 97
1 1 27 98
1 1 27 99
1 1 27 100
1 1 27 108
1 1 27 120
1 1 27 125
1 1 27 128
1 1 27 129
1 1 27 137
1 1 27 140
1 1 27 168
1 1 27 180
1 1 27 185
1 1 27 188
1 1 27 189
1 1 27 197
1 1 27 200
1 1 27 306
1 1 27 308
1 1 27 310
1 1 27 318
1 1 27 320
1 1 27 325
1 1 27 326
1 1 27 327
1 1 27 328
1 1 27 329
1 1 27 330
1 1 27 337
1 1 27 338
1 1 27 339
1 1 27 340
1 1 27 366
1 1 27 368
1 1 27 370
1 1 27 378
1 1 27 380
1 1 27 385
1 1 27 386
1 1 27 387
1 1 27 388
1 1 27 389
1 1 27 390
1 1 27 397
1 1 27 398
1 1 27 399
1 1 27 400
1 1 27 408
1 1 27 420
1 1 27 425
1 1 27 428
1 1 27 429
1 1 27 437
1 1 27 440
1 1 27 468
1 1 27 480
1 1 27 485
1 1 27 488
1 1 27 489
1 1 27 497
1 1 27 500
1 1 25 28
1 1 26 28
1 1 27 28
1 1 28 29
1 1 28 30
1 1 28 37
1 1 28 38
1 1 28 39
1 1 28 40
1 1 28 45
1 1 28 47
1 1 28 49
1 1 28 57
1 1 28 59
1 1 28 85
1 1 28 86
1 1 28 87
1 1 28 88
1 1 28 89
1 1 28 90
1 1 28 97
1 1 28 98
1 1 28 99
1 1 28 100
1 1 28 226
1 1 28 227
1 1 28 230
1 1 28 238
1 1 28 239
1 1 28 247
1 1 28 259
1 1 28 286
1 1 28 287
1 1 28 290
1 1 28 298
1 1 28 299
1 1 28 325
1 1 28 326
1 1 28 327
1 1 28 328
1 1 28 329
1 1 28 330
1 1 28 337
1 1 28 338
1 1 28 339
1 1 28 340
1 1 28 345
1 1 28 347
1 1 28 349
1 1 28 357
1 1 28 359
1 1 28 385
1 1 28 386
1 1 28 387
1 1 28 388
1 1 28 389
1 1 28 390
1 1 28 397
1 1 28 398
1 1 28 399
1 1 28 400
1 1 8 29
1 1 10 29
1 1 12 29
1 1 20 29
1 1 27 29
1 1 28 29
1 1 29 30
1 1 29 31
1 1 29 32
1 1 29 39
1 1 29 40
1 1 29 68
1 1 29 70
1 1 29 72
1 1 29 80
1 1 29 87
1 1 29 88
1 1 29 89
1 1 29 90
1 1 29 91
1 1 29 92
1 1 29 99
1 1 29 100
1 1 29 210
1 1 29 227
1 1 29 230
1 1 29 231
1 1 29 239
1 1 29 270
1 1 29 287
1 1 29 290
1 1 29 291
1 1 29 299
1 1 29 308
1 1 29 310
1 1 29 312
1 1 29 320
1 1 29 327
1 1 29 328
1 1 29 329
1 1 29 330
1 1 29 331
1 1 29 332
1 1 29 339
1 1 29 340
1 1 29 368
1 1 29 370
1 1 29 372
1 1 29 380
1 1 29 387
1 1 29 388
1 1 29 389
1 1 29 390
1 1 29 391
1 1 29 392
1 1 29 399
1 1 29 400
1 1 27 30
1 1 28 30
1 1 29 30
1 1 30 31
1 1 30 32
1 1 30 39
1 1 30 40
1 1 30 47
1 1 30 49
1 1 30 51
1 1 30 59
1 1 30 87
1 1 30 88
1 1 30 89
1 1 30 90
1 1 30 91
1 1 30 92
1 1 30 99
1 1 30 100
1 1 30 128
1 1 30 129
1 1 30 132
1 1 30 140
1 1 30 149
1 1 30 188
1 1 30 189
1 1 30 192
1 1 30 200
1 1 30 327
1 1 30 328
1 1 30 329
1 1 30 330
1 1 30 331
1 1 30 332
1 1 30 339
1 1 30 340
1 1 30 347
1 1 30 349
1 1 30 351
1 1 30 359
1 1 30 387
1 1 30 388
1 1 30 389
1 1 30 390
1 1 30 391
1 1 30 392
1 1 30 399
1 1 30 400
1 1 30 428
1 1 30 429
1 1 30 432
1 1 30 440
1 1 30 449
1 1 30 488
1 1 30 489
1 1 30 492
1 1 30 500
1 1 2 31
1 1 10 31
1 1 12 31
1 1 14 31
1 1 21 31
1 1 22 31
1 1 29 31
1 1 30 31
1 1 31 32
1 1 31 33
1 1 31 34
1 1 31 62
1 1 31 70
1 1 31 72
1 1 31 74
1 1 31 81
1 1 31 82
1 1 31 89
1 1 31 90
1 1 31 91
1 1 31 92
1 1 31 93
1 1 31 94
1 1 31 112
1 1 31 121
1 1 31 129
1 1 31 132
1 1 31 133
1 1 31 172
1 1 31 181
1 1 31 189
1 1 31 192
1 1 31 193
1 1 31 302
1 1 31 310
1 1 31 312
1 1 31 314
1 1 31 321
1 1 31 322
1 1 31 329
1 1 31 330
1 1 31 331
1 1 31 332
1 1 31 333
1 1 31 334
1 1 31 362
1 1 31 370
1 1 31 372
1 1 31 374
1 1 31 381
1 1 31 382
1 1 31 389
1 1 31 390
1 1 31 391
1 1 31 392
1 1 31 393
1 1 31 394
1 1 31 412
1 1 31 421
1 1 31 429
1 1 31 432
1 1 31 433
1 1 31 472
1 1 31 481
1 1 31 489
1 1 31 492
1 1 31 493
1 1 21 32
1 1 22 32
1 1 29 32
1 1 30 32
1 1 31 32
1 1 32 33
1 1 32 34
1 1 32 41
1 1 32 49
1 1 32 51
1 1 32 53
1 1 32 81
1 1 32 82
1 1 32 89
1 1 32 90
1 1 32 91
1 1 32 92
1 1 32 93
1 1 32 94
1 1 32 222
1 1 32 230
1 1 32 231
1 1 32 234
1 1 32 251
1 1 32 282
1 1 32 290
1 1 32 291
1 1 32 294
1 1 32 321
1 1 32 322
1 1 32 329
1 1 32 330
1 1 32 331
1 1 32 332
1 1 32 333
1 1 32 334
1 1 32 341
1 1 32 349
1 1 32 351
1 1 32 353
1 1 32 381
1 1 32 382
1 1 32 389
1 1 32 390
1 1 32 391
1 1 32 392
1 1 32 393
1 1 32 394
1 1 2 33
1 1 4 33
1 1 12 33
1 1 14 33
1 1 16 33
1 1 21 33
1 1 22 33
1 1 23 33
1 1 24 33
1 1 31 33
1 1 32 33
1 1 33 34
1 1 33 35
1 1 33 36
1 1 33 62
1 1 33 64
1 1 33 72
1 1 33 74
1 1 33 76
1 1 33 81
1 1 33 82
1 1 33 83
1 1 33 84
1 1 33 91
1 1 33 92
1 1 33 93
1 1 33 94
1 1 33 95
1 1 33 96
1 1 33 202
1 1 33 214
1 1 33 222
1 1 33 223
1 1 33 231
1 1 33 234
1 1 33 235
1 1 33 262
1 1 33 274
1 1 33 282
1 1 33 283
1 1 33 291
1 1 33 294
1 1 33 295
1 1 33 302
1 1 33 304
1 1 33 312
1 1 33 314
1 1 33 316
1 1 33 321
1 1 33 322
1 1 33 323
1 1 33 324
1 1 33 331
1 1 33 332
1 1 33 333
1 1 33 334
1 1 33 335
1 1 33 336
1 1 33 362
1 1 33 364
1 1 33 372
1 1 33 374
1 1 33 376
1 1 33 381
1 1 33 382
1 1 33 383
1 1 33 384
1 1 33 391
1 1 33 392
1 1 33 393
1 1 33 394
1 1 33 395
1 1 33 396
1 1 21 34
1 1 22 34
1 1 23 34
1 1 24 34
1 1 31 34
1 1 32 34
1 1 33 34
1 1 34 35
1 1 34 36
1 1 34 41
1 1 34 43
1 1 34 51
1 1 34 53
1 1 34 55
1 1 34 81
1 1 34 82
1 1 34 83
1 1 34 84
1 1 34 91
1 1 34 92
1 1 34 93
1 1 34 94
1 1 34 95
1 1 34 96
1 1 34 121
1 1 34 124
1 1 34 132
1 1 34 133
1 1 34 136
1 1 34 141
1 1 34 153
1 1 34 181
1 1 34 184
1 1 34 192
1 1 34 193
1 1 34 196
1 1 34 321
1 1 34 322
1 1 34 323
1 1 34 324
1 1 34 331
1 1 34 332
1 1 34 333
1 1 34 334
1 1 34 335
1 1 34 336
1 1 34 341
1 1 34 343
1 1 34 351
1 1 34 353
1 1 34 355
1 1 34 381
1 1 34 382
1 1 34 383
1 1 34 384
1 1 34 391
1 1 34 392
1 1 34 393
1 1 34 394
1 1 34 395
1 1 34 396
1 1 34 421
1 1 34 424
1 1 34 432
1 1 34 433
1 1 34 436
1 1 34 441
1 1 34 453
1 1 34 481
1 1 34 484
1 1 34 492
1 1 34 493
1 1 34 496
1 1 2 35
1 1 4 35
1 1 6 35
1 1 14 35
1 1 16 35
1 1 18 35
1 1 21 35
1 1 22 35
1 1 23 35
1 1 24 35
1 1 25 35
1 1 26 35
1 1 33 35
1 1 34 35
1 1 35 36
1 1 35 37
1 1 35 38
1 1 35 62
1 1 35 64
1 1 35 66
1 1 35 74
1 1 35 76
1 1 35 78
1 1 35 81
1 1 35 82
1 1 35 83
1 1 35 84
1 1 35 85
1 1 35 86
1 1 35 93
1 1 35 94
1 1 35 95
1 1 35 96
1 1 35 97
1 1 35 98
1 1 35 104
1 1 35 116
1 1 35 121
1 1 35 124
1 1 35 125
1 1 35 133
1 1 35 136
1 1 35 137
1 1 35 164
1 1 35 176
1 1 35 181
1 1 35 184
1 1 35 185
1 1 35 193
1 1 35 196
1 1 35 197
1 1 35 302
1 1 35 304
1 1 35 306
1 1 35 314
1 1 35 316
1 1 35 318
1 1 35 321
1 1 35 322
1 1 35 323
1 1 35 324
1 1 35 325
1 1 35 326
1 1 35 333
1 1 35 334
1 1 35 335
1 1 35 336
1 1 35 337
1 1 35 338
1 1 35 362
1 1 35 364
1 1 35 366
1 1 35 374
1 1 35 376
1 1 35 378
1 1 35 381
1 1 35 382
1 1 35 383
1 1 35 384
1 1 35 385
1 1 35 386
1 1 35 393
1 1 35 394
1 1 35 395
1 1 35 396
1 1 35 397
1 1 35 398
1 1 35 404
1 1 35 416
1 1 35 421
1 1 35 424
1 1 35 425
1 1 35 433
1 1 35 436
1 1 35 437
1 1 35 464
1 1 35 476
1 1 35 481
1 1 35 484
1 1 35 485
1 1 35 493
1 1 35 496
1 1 35 497
1 1 21 36
1 1 22 36
1 1 23 36
1 1 24 36
1 1 25 36
1 1 26 36
1 1 33 36
1 1 34 36
1 1 35 36
1 1 36 37
1 1 36 38
1 1 36 41
1 1 36 43
1 1 36 45
1 1 36 53
1 1 36 55
1 1 36 57
1 1 36 81
1 1 36 82
1 1 36 83
1 1 36 84
1 1 36 85
1 1 36 86
1 1 36 93
1 1 36 94
1 1 36 95
1 1 36 96
1 1 36 97
1 1 36 98
1 1 36 222
1 1 36 223
1 1 36 226
1 1 36 234
1 1 36 235
1 1 36 238
1 1 36 243
1 1 36 255
1 1 36 282
1 1 36 283
1 1 36 286
1 1 36 294
1 1 36 295
1 1 36 298
1 1 36 321
1 1 36 322
1 1 36 323
1 1 36 324
1 1 36 325
1 1 36 326
1 1 36 333
1 1 36 334
1 1 36 335
1 1 36 336
1 1 36 337
1 1 36 338
1 1 36 341
1 1 36 343
1 1 36 345
1 1 36 353
1 1 36 355
1 1 36 357
1 1 36 381
1 1 36 382
1 1 36 383
1 1 36 384
1 1 36 385
1 1 36 386
1 1 36 393
1 1 36 394
1 1 36 395
1 1 36 396
1 1 36 397
1 1 36 398
1 1 4 37
1 1 6 37
1 1 8 37
1 1 16 37
1 1 18 37
1 1 20 37
1 1 23 37
1 1 24 37
1 1 25 37
1 1 26 37
1 1 27 37
1 1 28 37
1 1 35 37
1 1 36 37
1 1 37 38
1 1 37 39
1 1 37 40
1 1 37 64
1 1 37 66
1 1 37 68
1 1 37 76
1 1 37 78
1 1 37 80
1 1 37 83
1 1 37 84
1 1 37 85
1 1 37 86
1 1 37 87
1 1 37 88
1 1 37 95
1 1 37 96
1 1 37 97
1 1 37 98
1 1 37 99
1 1 37 100
1 1 37 206
1 1 37 218
1 1 37 223
1 1 37 226
1 1 37 227
1 1 37 235
1 1 37 238
1 1 37 239
1 1 37 266
1 1 37 278
1 1 37 283
1 1 37 286
1 1 37 287
1 1 37 295
1 1 37 298
1 1 37 299
1 1 37 304
1 1 37 306
1 1 37 308
1 1 37 316
1 1 37 318
1 1 37 320
1 1 37 323
1 1 37 324
1 1 37 325
1 1 37 326
1 1 37 327
1 1 37 328
1 1 37 335
1 1 37 336
1 1 37 337
1 1 37 338
1 1 37 339
1 1 37 340
1 1 37 364
1 1 37 366
1 1 37 368
1 1 37 376
1 1 37 378
1 1 37 380
1 1 37 383
1 1 37 384
1 1 37 385
1 1 37 386
1 1 37 387
1 1 37 388
1 1 37 395
1 1 37 396
1 1 37 397
1 1 37 398
1 1 37 399
1 1 37 400
1 1 23 38
1 1 24 38
1 1 25 38
1 1 26 38
1 1 27 38
1 1 28 38
1 1 35 38
1 1 36 38
1 1 37 38
1 1 38 39
1 1 38 40
1 1 38 43
1 1 38 45
1 1 38 47
1 1 38 55
1 1 38 57
1 1 38 59
1 1 38 83
1 1 38 84
1 1 38 85
1 1 38 86
1 1 38 87
1 1 38 88
1 1 38 95
1 1 38 96
1 1 38 97
1 1 38 98
1 1 38 99
1 1 38 100
1 1 38 124
1 1 38 125
1 1 38 128
1 1 38 136
1 1 38 137
1 1 38 140
1 1 38 145
1 1 38 157
1 1 38 184
1 1 38 185
1 1 38 188
1 1 38 196
1 1 38 197
1 1 38 200
1 1 38 323
1 1 38 324
1 1 38 325
1 1 38 326
1 1 38 327
1 1 38 328
1 1 38 335
1 1 38 336
1 1 38 337
1 1 38 338
1 1 38 339
1 1 38 340
1 1 38 343
1 1 38 345
1 1 38 347
1 1 38 355
1 1 38 357
1 1 38 359
1 1 38 383
1 1 38 384
1 1 38 385
1 1 38 386
1 1 38 387
1 1 38 388
1 1 38 395
1 1 38 396
1 1 38 397
1 1 38 398
1 1 38 399
1 1 38 400
1 1 38 424
1 1 38 425
1 1 38 428
1 1 38 436
1 1 38 437
1 1 38 440
1 1 38 445
1 1 38 457
1 1 38 484