ITEM: TIMESTEP
10
ITEM: NUMBER OF ATOMS
500
ITEM: BOX BOUNDS pp pp pp
-3.535000000000000 3.535000000000000
-3.535000000000000 3.535000000000000
-3.535000000000000 3.535000000000000
ITEM: ATOMS id mol type x y z vx vy vz
0 1 1 -3.185930043012181 -3.170147610605940 -3.183828686851713 0.628840112918217 0.606740070416610 -0.468739867391257
1 1 1 -2.482082725748449 -2.460033525841471 -3.180356151701021 0.052270072231583 0.655199896078213 -0.158272105173796
2 1 1 -2.469940326965167 -3.185201843799031 -2.459302985610648 0.823994665553433 -0.216472259285000 0.435726296865282
3 1 1 -3.183952375013108 -2.481522095284158 -2.459213955199585 0.441544473866136 -0.232533387206661 0.373122863667574
4 1 1 -3.187039882324663 -3.199425426050495 -1.758850845494546 0.396977826719436 -0.845363166964104 0.039303361456390
5 1 1 -2.488932818568698 -2.483893255821826 -1.749180170410018 -0.290367664283075 -0.428846969336715 0.512690163702234
6 1 1 -2.484398295311139 -3.183342145919414 -1.048921973902093 0.099962975342131 0.115170227678463 0.201835906963956
7 1 1 -3.205476314857526 -2.482162181902738 -1.048791578495774 -0.503454365839115 -0.365774989894659 0.415181598761861
8 1 1 -3.210815833559582 -3.183507853308301 -0.356713137475071 -0.572098778027048 0.120302537558893 -0.336912832665634
9 1 1 -2.505230857615821 -2.476123359405399 -0.357255678546568 -0.728130018820090 0.016878376892396 -0.269799597124932
10 1 1 -2.498192185620583 -3.170645254431231 0.341828054350210 -0.269271709345052 0.659453208378826 -0.704702299396233
11 1 1 -3.213708404211165 -2.469879741545879 0.336978342908207 -0.660013255872887 0.423829712238646 -0.913127722867680
12 1 1 -3.205499031786343 -3.179542856880748 1.042371057161562 -0.062838349214846 0.297526373305379 -1.136857547056031
13 1 1 -2.508022190342797 -2.461442486212951 1.034122944837418 -0.562186007653558 0.537199359390704 -1.355204782100784
14 1 1 -2.486862975510285 -3.163771112346880 1.740208152328641 0.478215310356309 0.623910151837155 -1.469181481490745
15 1 1 -3.207633863994652 -2.465148847731189 1.746899609533104 -0.084319161019385 0.276522187739307 -1.367944612241981
16 1 1 -3.189065426065146 -3.163942586710982 2.454081501867932 0.729085955806720 0.698548343077462 -1.447029603251879
17 1 1 -2.488374364568915 -2.452617605212684 2.466937728017082 0.069758040580660 0.996355744421970 -0.892762704471656
18 1 1 -2.478608005828498 -3.168387146961674 3.177095713908178 0.430990382397814 0.511697887164266 -0.664529825685278
19 1 1 -3.188047130597296 -2.462596104735287 3.174842889385314 0.177620004593365 0.379841688579941 -0.690948762421105
20 1 1 -3.180138252112776 -1.753904067046010 -3.173552909231778 0.649199336563717 0.794835387940400 0.101304579028537
21 1 1 -2.485004971820324 -1.057954628006537 -3.176503494798101 0.285595798707219 0.314329001141575 0.405552498844549
22 1 1 -2.494900876767561 -1.769444525156728 -2.467943172496109 0.056026192957108 -0.200827564174490 0.382105639006216
23 1 1 -3.202289876897530 -1.063074410477006 -2.464066918044653 -0.335037082199014 0.144134375436911 0.339467497252694
24 1 1 -3.199451891321021 -1.776580180333769 -1.747925589914998 -0.232287412613170 -0.316117866142834 0.673694853114629
25 1 1 -2.487065846794860 -1.062517737503949 -1.758831740808756 0.094500266088309 -0.059562311688221 0.401450677590682
26 1 1 -2.514822881011233 -1.776176325502619 -1.054402049342047 -1.210446988646158 -0.378990301488264 0.223829053318747
27 1 1 -3.220754932689503 -1.052248208957287 -1.056543710359281 -1.066569696857271 0.617353692034220 0.022220617292228
28 1 1 -3.215715093210681 -1.765324806648998 -0.358792371107625 -0.881732166223266 0.319851934331310 -0.510932683326885
29 1 1 -2.502068159920167 -1.054656551195203 -0.369213674472821 -0.283067533698184 0.258191926788690 -0.733082570676482
30 1 1 -2.510828474168314 -1.766492673870809 0.329285291595697 -0.738009107676632 0.129963606586518 -1.329303624427363
31 1 1 -3.217553159133339 -1.059323769447729 0.332553743601518 -0.707239716937319 0.253898128831813 -1.300653759410861
32 1 1 -3.213937759515970 -1.760254335046223 1.037159790885292 -0.507190553499156 0.587411622335994 -1.647164148053925
33 1 1 -2.486320190141659 -1.042907736885226 1.056110016955517 0.281661347543881 0.937943766262486 -0.596105183920507
34 1 1 -2.487628365188066 -1.760468872371869 1.756531053898582 -0.203005635515213 0.407712650064885 -0.920023441636745
35 1 1 -3.184318295643725 -1.048172287014653 1.758480218747256 0.481812338109902 0.797527035516226 -0.819563825872568
36 1 1 -3.185425003794756 -1.754900550888732 2.476737434077536 0.387279152917785 0.717709566857288 -0.273135529928748
37 1 1 -2.476075886354796 -1.045753556537742 2.480689331854573 0.553572486278938 0.638995249622435 0.106364560420288
38 1 1 -2.481395280725748 -1.756618916897595 3.178562940809867 0.220971175933720 0.469283626875172 -0.424108102238105
39 1 1 -3.184106575982384 -1.051721368381880 3.183976605945042 0.499791862389600 0.531354030790325 -0.057173745697849
40 1 1 -3.192457989096755 -0.335832085873115 -3.182049235639317 0.469722152129717 0.810115516313028 -0.046181258960740
41 1 1 -2.476313033029869 0.371857188828928 -3.196494728148117 0.765066543048775 0.630829709841842 -0.565692063976591
42 1 1 -2.477053106386952 -0.329419100285758 -2.466458568477921 0.716084840951970 1.015475657403601 0.408404701932724
43 1 1 -3.189143324458679 0.371047671608778 -2.472488362511883 0.731073143735930 0.778917576520206 -0.027089322634862
44 1 1 -3.208098177916888 -0.342327574044085 -1.753069000662962 -0.432406016043881 0.439859957402145 0.674148959408283
45 1 1 -2.492345699969754 0.351827777781538 -1.766589008750238 0.089005539442617 -0.379253861767815 0.302223878061839
46 1 1 -2.494486295547196 -0.340408897967253 -1.062208088925280 0.115792604084351 0.554419825444853 0.065954014829092
47 1 1 -3.205583776973492 0.360420084652562 -1.057837591308429 0.139924032845332 0.092753402960648 0.261464114063700
48 1 1 -3.205451354900623 -0.343080012782248 -0.360495189174659 0.004133129691771 0.432380746308468 -0.307541998905301
49 1 1 -2.485122436397336 0.348844078906212 -0.362679382851137 0.522147286380877 -0.352022259784416 -0.350856388663589
50 1 1 -2.485843782924571 -0.342119680850622 0.345131525026901 0.476986051427708 0.531739488613548 -0.530486356379869
51 1 1 -3.188803221248244 0.365875856007063 0.348991977318185 0.798530782198170 0.867471812968950 -0.417927724891558
52 1 1 -3.189952433436767 -0.339340783365386 1.061580287445376 0.562250346652929 0.924928112316917 -0.329614027881414
53 1 1 -2.476733959005387 0.359936649949744 1.049494980052716 0.845809764134321 0.408744146671644 -0.447597778906123
54 1 1 -2.472853289200218 -0.344779966033460 1.776480691507881 0.888703843178852 0.469850934573853 0.596454192899665
55 1 1 -3.185603516394071 0.357631263539704 1.770516114318584 1.000763348724196 0.240576340880161 0.075852370744927
56 1 1 -3.186493272235529 -0.336465756322321 2.490493711394098 0.595276967665958 0.923736141306580 0.737660720966940
57 1 1 -2.466039944104447 0.361539180105348 2.455004585400638 1.416748520137001 0.135849064662134 -0.899329658591735
58 1 1 -2.471245062175690 -0.346131737498652 3.164413665556437 1.177705916760536 0.109164855864027 -0.574385663345214
59 1 1 -3.184075136447569 0.364884173977929 3.159163539370663 0.952045671327403 0.389326185032803 -0.877167059451985
60 1 1 -3.191596838703690 1.082025657920344 -3.193871764137839 0.648428355110794 0.843657981957749 -0.665389804885460
61 1 1 -2.481511898986152 1.787291344459699 -3.170615431821128 0.677826337830879 1.138561826008958 0.166511655523052
62 1 1 -2.482099546741716 1.074825510433089 -2.470358694417038 0.637307387780682 0.508774890027503 0.294923741851378
63 1 1 -3.195021765010917 1.786170802494745 -2.464315108377144 0.529059455060445 1.030520888855650 0.265619012201792
64 1 1 -3.202567291827219 1.053790514194273 -1.766162366357599 0.378541873639868 -0.608338304150126 0.034307800196391
65 1 1 -2.478178335760672 1.762889005794948 -1.746730199388085 0.702932662242893 -0.116639383057015 0.591016153881826
66 1 1 -2.485382771998770 1.058143556013778 -1.057552062268354 0.557930272932890 0.025917718808640 0.110015805879601
67 1 1 -3.194384037144955 1.766987648161667 -1.053971231207568 0.483840843773982 0.083239578474818 0.248069751999819
68 1 1 -3.197118641245050 1.061178439490716 -0.361196536805699 0.484217942369877 0.169674982004498 -0.453190837891119
69 1 1 -2.471104475201308 1.755238897060014 -0.343126945753540 1.236216789168811 -0.343320828873140 0.216446971640614
70 1 1 -2.480290636432857 1.058916783934194 0.348234925192576 0.796489945472502 0.138884344601164 -0.303947476680564
71 1 1 -3.196825333229609 1.769143861212204 0.353166965980736 0.034951357316564 0.355365685810465 -0.620888756716673
72 1 1 -3.192277880836112 1.066605812151458 1.052858344060748 0.465026365633175 0.516312117847152 -0.555688313192785
73 1 1 -2.484145488167407 1.765684502956013 1.050105469598197 0.472172104220151 0.081737001664138 -0.582544979016132
74 1 1 -2.472218843854328 1.063412648722806 1.752908511699912 1.038058192081882 0.080918866490904 -0.617161534120801
75 1 1 -3.195003540471240 1.779155884930668 1.758642073820928 0.398765561527479 0.644919984198256 -0.592978061738552
76 1 1 -3.182405323766746 1.072644248790543 2.450859077477971 1.162547538722622 0.283447172546244 -1.065498455829434
77 1 1 -2.475893093416292 1.786673002845479 2.465220873123759 0.934595141767325 0.823601489273142 -0.508330846591465
78 1 1 -2.475002960789016 1.084142399110270 3.163963647953934 1.031113929394758 0.837955801800100 -0.626577789220285
79 1 1 -3.192436315933016 1.790880723172899 3.168179421184603 0.660146301686987 1.056663772581792 -0.685500836647781
80 1 1 -3.192031683920396 2.490067857062038 -3.174647126842147 0.567546968586005 0.823556242907307 -0.033583383004907
81 1 1 -2.476632164465566 3.194033112361034 -3.175103545644715 0.618867313929064 0.771494253749745 -0.016501348214771
82 1 1 -2.472001689636507 2.484224283214638 -2.456026635797378 0.868297685946237 0.509405019202751 0.614733132682775
83 1 1 -3.180453156672532 3.182469323874523 -2.461247566770908 0.905147788996175 0.342935210379639 0.328925841321666
84 1 1 -3.191494242151600 2.461417789676456 -1.746005439078289 0.531603813126486 -0.575440472931137 0.899210682470652
85 1 1 -2.475615730065848 3.159898266422987 -1.745108109641309 0.605337332573924 -0.785561230416160 0.725111509577087
86 1 1 -2.474832284075329 2.463993530881153 -1.043049919774012 0.770516143889250 -0.212012037076768 0.430901223349560
87 1 1 -3.188571991421616 3.168745789801900 -1.049692857228261 0.448872961592512 -0.406017349943145 -0.071315980458007
88 1 1 -3.193825647798203 2.465800519414989 -0.343656260826437 0.186740894854679 -0.005693189836475 0.096493847494486
89 1 1 -2.492645548466897 3.175471975857533 -0.353049979696902 -0.055737374251492 -0.016301651762135 -0.324945180640614
90 1 1 -2.493079479219451 2.474654753128692 0.353514331141334 -0.063952230195763 0.506795357869526 -0.250496923540256
91 1 1 -3.212303545745421 3.178653260314482 0.351688669646851 -0.603665832868024 0.279569890773339 -0.455968263537437
92 1 1 -3.200361079693298 2.476836343762083 1.059581087175830 0.034900749361957 0.480569113444163 -0.348339528621533
93 1 1 -2.497394793924709 3.188058234431706 1.045304977610738 -0.137768171992176 0.471248394631683 -0.893575248210755
94 1 1 -2.485302043821823 2.486688824772190 1.768437023949788 0.458147938783060 0.663777766750801 -0.281995066240923
95 1 1 -3.199535841943745 3.183876957717612 1.760322731679643 0.394577736102569 0.239967058596599 -0.711535390595431
96 1 1 -3.194834598905357 2.497034751796221 2.464426335407047 0.512450541711020 1.117687431984695 -0.670279938293193
97 1 1 -2.470356263900106 3.200727425037422 2.457325697548558 1.160597748050848 0.823580108892386 -1.103191855464996
98 1 1 -2.468928697059567 2.490845977114173 3.177618078222859 1.208754720297002 0.689539576727338 -0.731718035615096
99 1 1 -3.186448833128931 3.202645702817879 3.163555124319794 0.747920899903310 0.931073128843163 -1.350673499760650
100 1 1 -1.775247321022559 -3.168071942213089 -3.175479867255401 0.367898023502413 0.644808358046014 0.193990676479299
101 1 1 -1.050315964845878 -2.480969748636479 -3.164222782563516 1.086379946415544 -0.333701384894563 0.818400544235000
102 1 1 -1.053191219779134 -3.197215793258719 -2.460152987179004 1.133650084367273 -0.790757031531902 0.542135871639534
103 1 1 -1.766973612665322 -2.483870822289918 -2.452980907494207 0.557247588161499 -0.408015623425870 0.975438844084749
104 1 1 -1.762662830123422 -3.193425121242766 -1.752712737312045 0.812255358597513 -0.607426906365700 0.297499173575710
105 1 1 -1.059774424801484 -2.487711370742195 -1.750253814419102 0.473959846213152 -0.608145126247753 0.862652995479819
106 1 1 -1.066962794770083 -3.186547478526954 -1.055747640401627 0.144005036880021 -0.186586916383684 0.359403696196883
107 1 1 -1.794873448649184 -2.482499166275667 -1.053584738963455 -0.723083221765174 -0.619671956057391 0.298508987877872
108 1 1 -1.789549579127905 -3.176450562946394 -0.351979279978326 -0.422549278443076 0.182405281880323 0.108885593306085
109 1 1 -1.064384539287748 -2.472899386089354 -0.349489028294026 0.571734252712792 0.365071752554439 0.318760498584136
110 1 1 -1.072441447136033 -3.178110069897772 0.357295836287546 0.251414735924932 0.322487342679771 0.417272096619755
111 1 1 -1.797556862125242 -2.471831361251813 0.344882089251757 -0.795063100409163 0.170358537600245 -0.396235052423964
112 1 1 -1.768008155822853 -3.174781767665313 1.056230706946889 0.712982640735860 0.336786835355387 -0.344416996676087
113 1 1 -1.058672732281746 -2.485638047058399 1.053208725237541 0.876007720231088 -0.439207691153298 -0.424772260805160
114 1 1 -1.059349136720514 -3.185040948702987 1.767323789557747 0.948448123393488 -0.254166902874063 -0.098672877525069
115 1 1 -1.775064251118496 -2.467871191282500 1.760923689962340 0.166348122724481 0.347764956490836 -0.696491515988776
116 1 1 -1.777972941608771 -3.161270628693560 2.475770130671032 0.336059509464956 0.812484931703315 -0.433883589124968
117 1 1 -1.066982688431443 -2.459466948107786 2.468140070661106 0.694302273529556 0.703723529604776 -0.452253969911124
118 1 1 -1.068502214269126 -3.184254766167198 3.174025947991975 0.656732490289244 -0.151353852809997 -0.457189213492752
119 1 1 -1.778937912463822 -2.464722764606012 3.176854635735860 0.011731441501149 0.297309826816362 -0.427337337243550
120 1 1 -1.765975641439442 -1.764998538587554 -3.168555902880748 0.786594465563079 0.409347427867221 0.605106217196342
121 1 1 -1.044984388560948 -1.050824176909483 -3.178215895292233 1.462832990152469 0.550012079739890 0.336959392478524
122 1 1 -1.052956697896552 -1.771430142083192 -2.472934844667150 0.670381569944171 -0.435709142239783 0.091653563757935
123 1 1 -1.758993595392032 -1.054938463970615 -2.462976054791878 1.111096529644284 0.268533732585761 0.682595517666517
124 1 1 -1.776106529369185 -1.786722808737480 -1.753267254291372 0.047049900055886 -0.951933455750061 0.739584802592441
125 1 1 -1.060768560326767 -1.056078508906049 -1.765928004209546 0.532946789427193 0.170064249670803 0.237468874093624
126 1 1 -1.068231862152620 -1.751850399405418 -1.062927519010639 0.248668741584074 0.884790779359486 0.041317776115205
127 1 1 -1.786103219882478 -1.054968627793444 -1.060772562777258 -0.117501439535465 0.322139562359894 -0.066064193053728
128 1 1 -1.783891638785934 -1.770936408793248 -0.362279287485106 -0.160257070090013 -0.210456902892260 -0.424123625373876
129 1 1 -1.062948206261220 -1.041785174210825 -0.361930669982071 0.699604563422224 1.065645017598097 -0.364505510033020
130 1 1 -1.062719213204934 -1.757459560761826 0.343271750546385 0.663288807487330 0.642484865059669 -0.510640283527475
131 1 1 -1.771555907793827 -1.053619123120523 0.344543769071388 0.705089169616377 0.488195072344324 -0.598557207308575
132 1 1 -1.773026028205174 -1.758671904440640 1.050501125707285 0.577921773179118 0.509969520696665 -0.814995869799000
133 1 1 -1.054245512509851 -1.045804147604222 1.050765560127479 1.117751936487104 0.906627969642716 -0.547806083259873
134 1 1 -1.060581202555535 -1.742978828825200 1.759384350576272 0.876674433863153 1.013573846595085 -0.348782150924879
135 1 1 -1.759781372590452 -1.051585831744000 1.766965771874469 1.166109985356805 0.522566859685415 -0.058498616621791
136 1 1 -1.771713580083170 -1.758207941566215 2.474160039446986 0.568953938186079 0.298417309690033 -0.292515229311502
137 1 1 -1.047421319889462 -1.046440601348128 2.465480157814316 1.479731019357793 0.699456603335094 -0.420524324447667
138 1 1 -1.050910702639466 -1.763640766788793 3.183602578900874 1.332332995742535 0.087126478222957 0.199021647322822
139 1 1 -1.760437095455569 -1.047553230794445 3.175228841163496 1.332749038368289 0.621643075781240 -0.081667136379938
140 1 1 -1.761534114970501 -0.331974164067176 -3.187401750133594 1.224955628382657 0.972145733447037 -0.157656093162484
141 1 1 -1.039746442739377 0.359862912831171 -3.182483190908648 1.744786679346262 0.439886499279002 0.021377389714562
142 1 1 -1.049810866758060 -0.351716605731107 -2.480423467563407 1.190744710978308 0.273651226927019 -0.290111044225014
143 1 1 -1.764190249973596 0.363981977895874 -2.466074845557189 0.916979457946667 0.401814918942818 0.357611703632825
144 1 1 -1.775350848238036 -0.351589837238573 -1.766054239879859 0.355421606658656 -0.110337498868241 0.033204022410454
145 1 1 -1.054028789105151 0.351201489472581 -1.759052816107614 1.047989534199003 -0.004108807089893 0.233736631313255
146 1 1 -1.063806756744174 -0.346037534522983 -1.050758528204940 0.605874148318337 0.553623457484097 0.511988646226306
147 1 1 -1.777227667586253 0.345001518092154 -1.065337614287502 0.330810022646765 -0.409572113145647 -0.292147472634750
148 1 1 -1.776012093655804 -0.350668517374306 -0.365418187705037 0.451343272775617 0.025894194636247 -0.549467154487138
149 1 1 -1.045579663532274 0.353825025780340 -0.356428514024366 1.620353726876377 0.145294705721035 -0.161250443102338
150 1 1 -1.058412379376417 -0.345106011000821 0.343346694760624 1.069850281566393 0.666204703728266 -0.384342795015039
151 1 1 -1.765412724274170 0.359982689075648 0.343614157491998 1.092856668746863 0.738299942032836 -0.414044094500240
152 1 1 -1.761058459929667 -0.342268737298332 1.049979188473941 1.162164835750494 0.749049964920608 -0.400634564524293
153 1 1 -1.037266600876724 0.354465593391340 1.054223221170650 1.882595029336060 0.203429630030269 -0.413450788424644
154 1 1 -1.045869731266866 -0.340411183182433 1.765836387795544 1.640391152391700 0.679037022797973 -0.008024356085293
155 1 1 -1.761214127813774 0.366001245390661 1.763606192810607 1.229703129877257 0.426413787259601 -0.215434793214475
156 1 1 -1.759132620451841 -0.333046389801553 2.467144124925623 1.421984744047527 0.784581808318463 -0.315732939330795
157 1 1 -1.044399565007182 0.358553278688315 2.471238927407198 1.695897066209485 0.313730752321916 0.048921991607110
158 1 1 -1.038309618794310 -0.345065924625903 3.182880484260821 1.989489358740708 0.457549384084668 0.266111807529944
159 1 1 -1.762539841279126 0.380607529144286 3.156938165993191 1.150053677761649 1.179000819130783 -0.687840139479818
160 1 1 -1.753159465408107 1.072422799715588 -3.176395080817852 1.360302005110060 0.697082183103000 0.005391372409790
161 1 1 -1.048287202526450 1.760145052477100 -3.172660874351135 1.592118873845246 -0.276608201825229 -0.187426129543037
162 1 1 -1.047929675777388 1.047169498016636 -2.468464297375031 1.464038536156728 -0.631653606184060 -0.045081738567725
163 1 1 -1.764936960548409 1.767393188500761 -2.448521559961668 0.920943200793964 0.125655739781464 0.692997002077530
164 1 1 -1.762882821826781 1.046831391443670 -1.756494242287351 1.040574371629724 -0.489337987197739 0.234902567245603
165 1 1 -1.053241531999629 1.747735426864336 -1.740394142145711 1.186079719235582 -0.981060608638122 0.883598775460354
166 1 1 -1.056957123733099 1.043183640914936 -1.045450413588156 1.162580326491725 -0.686065106608350 0.521243934129619
167 1 1 -1.763672414365789 1.766484791411691 -1.043519345262961 1.180839507832020 0.175184099333649 0.414525749954546
168 1 1 -1.755141106708375 1.063578399031064 -0.352722169866376 1.601471019108130 0.462007800398985 -0.166310086060870
169 1 1 -1.048749092313952 1.763553214693328 -0.344395756360019 1.517166473141124 -0.134845189220204 0.281389932594644
170 1 1 -1.050593291442338 1.053588099863876 0.351170642912962 1.404651276262717 -0.056780385338069 -0.222430433521633
171 1 1 -1.768730799737823 1.772689780388181 0.353729789006158 0.391791504579053 0.557404895200332 -0.636460460721350
172 1 1 -1.759454891582240 1.068278703457163 1.050297289994619 1.251099254593792 0.508440274774947 -0.746773184828096
173 1 1 -1.050992074332579 1.763946216306146 1.064525144458940 1.245809409803252 -0.122636840377086 0.093448634857712
174 1 1 -1.049823084297261 1.062892008889486 1.768928964368069 1.417710465199159 0.089889636554278 0.144078208487610
175 1 1 -1.771409699311326 1.783162099996938 1.762513424821774 0.823292132840686 0.653645199699842 -0.488834491277327
176 1 1 -1.762394186260199 1.085786821155850 2.461704302027076 1.221935374949944 0.960803008075786 -0.448726018994589
177 1 1 -1.041586414562123 1.774811497909601 2.483882629017950 1.741213337224377 0.194769307061857 0.225160990699745
178 1 1 -1.036568503083683 1.064531945586974 3.183306875287844 1.904651141538051 0.090888264114530 0.063840595617954
179 1 1 -1.751642315973397 1.784872086931862 3.194575823289759 1.598965646340740 0.777547382403365 0.194408800197413
180 1 1 -1.765441795881482 2.476867153809572 -3.163511707332226 0.999104270790948 0.174734590040316 0.305796509734867
181 1 1 -1.067488269395626 3.171516469602295 -3.168282231365339 0.555369834860538 -0.361657852318521 0.522410497332864
182 1 1 -1.053042846198785 2.454675453855416 -2.457181212565879 1.254637473650109 -1.021218397604235 0.711131487275551
183 1 1 -1.762415899612901 3.173442337281154 -2.448870475104970 1.049129910904430 -0.247111884700146 1.075194502118186
184 1 1 -1.766183877435885 2.451310810235555 -1.741618625534765 0.929573986080510 -0.819780146674781 0.870318011796199
185 1 1 -1.053431475412677 3.169667662574060 -1.747888350829065 0.918453589048089 -0.377431321509184 0.588961886374521
186 1 1 -1.051367391839138 2.465200833592036 -1.041160718297862 1.074594311078558 -0.239339496339707 0.844575388635669
187 1 1 -1.769630385542733 3.174921221210754 -1.047642693456240 0.640977726150214 -0.171397506519392 0.188843795052295
188 1 1 -1.775654869268602 2.468418630761225 -0.347308194976012 0.417677854447429 -0.010908214564731 0.016173944961455
189 1 1 -1.062859557391479 3.183422762857716 -0.342951501875779 0.369301896894960 0.134808341755782 0.468398509284402
190 1 1 -1.051982720718047 2.473686249196353 0.362188809617949 0.894381875872765 0.204778632980878 0.382488545370199
191 1 1 -1.783455668266217 3.185826820291326 0.360251817461705 -0.243022171437080 0.287107562521832 0.075704470935718
192 1 1 -1.770460326947642 2.487010699410737 1.071415453348201 0.381516086111711 0.742648888348077 -0.138976256865598
193 1 1 -1.058894331482869 3.176020106080531 1.057548942906791 0.910466097905252 -0.385924175734505 -0.183325415458404
194 1 1 -1.038426279661814 2.472740489351174 1.782518907903958 1.881999052605586 -0.382442331753274 0.570288451092714
195 1 1 -1.756040391831318 3.190449181733746 1.767671147967759 1.338933848967288 0.007956337636347 -0.250462790504554
196 1 1 -1.752865481011648 2.489324757426446 2.487052766007873 1.458853974827747 0.439097650609295 0.297851786606224
197 1 1 -1.059036222382448 3.189286499767678 2.479011118684580 1.035391612115826 0.382793909448802 -0.096414136569507
198 1 1 -1.058582901411127 2.459923837338400 3.185709363300018 1.022211680141144 -0.917103082546019 -0.278226568741344
199 1 1 -1.771305784660461 3.195447050490932 3.190393139639229 0.586176737893651 0.705606385957825 -0.112894951732519
200 1 1 -0.350117460169061 -3.178077909761058 -3.173259873910247 0.978768808677832 0.202862255651890 0.319621247842073
201 1 1 0.377848413609753 -2.457450175475433 -3.189948810635769 1.723804815421692 0.866666908592958 -0.582480220129644
202 1 1 0.379951622910036 -3.169309783129823 -2.466014562272210 1.755184466635290 0.573136924667850 0.252706735157465
203 1 1 -0.341122060649448 -2.461463607094695 -2.463154349680786 0.929388849232355 0.811896582803647 0.589107198365310
204 1 1 -0.345439156162148 -3.182597314610167 -1.758320001575251 0.752853032863861 0.066823756536349 0.348433873711935
205 1 1 0.357846413930327 -2.477597772438525 -1.766223882890371 0.699151534037796 0.070057448311360 0.039489385950986
206 1 1 0.365185280125033 -3.183020431639799 -1.041040626406291 1.095536265857876 0.139758977580406 1.155989184244878
207 1 1 -0.360650969709982 -2.470140644518869 -1.050838190693130 0.149416524293281 0.389753419117102 0.710436260435133
208 1 1 -0.356305592923505 -3.191788667533712 -0.343351712414036 0.547035043102979 -0.255754829619014 0.711466120930598
209 1 1 0.361381406773064 -2.479863556968756 -0.358540849234569 1.098968341805658 0.114212922199167 -0.140834344199906
210 1 1 0.367173271079384 -3.194579780328566 0.352608112761244 1.209336574006150 -0.373240384481069 0.104683275004338
211 1 1 -0.345754215862248 -2.476599272326101 0.347141882570756 0.998639649010077 0.154285476401005 -0.150253394659816
212 1 1 -0.334861764493068 -3.189368937711918 1.056853424163952 1.586732956513848 -0.215575256011271 -0.011114604401757
213 1 1 0.359998029299919 -2.471112425094350 1.038129295212147 1.348043300823348 0.087461550745712 -1.124398510071959
214 1 1 0.345629081500449 -3.169083497609560 1.758384994279790 0.723133168316238 0.717660469025519 -0.411239096937503
215 1 1 -0.352151567179621 -2.456125650344354 1.754430263947104 1.027778025214334 0.773403535686075 -0.737415878191509
216 1 1 -0.362521356887106 -3.173682458807483 2.469781766473941 0.633709953951292 0.433635661663854 -0.420797707810154
217 1 1 0.347968804610455 -2.466488266544743 2.467691658976357 0.643250311294327 0.427634457911204 -0.490249167541892
218 1 1 0.360210706017197 -3.171284061164033 3.181621109572105 1.207298921807963 0.600397610454288 -0.334327477337848
219 1 1 -0.347852771194333 -2.472876796615871 3.188820343398318 0.843731604930566 0.285752717571712 0.333294375710084
220 1 1 -0.337740773996910 -1.755124389687368 -3.182312789953384 1.368914288698192 0.950462897273470 -0.162753686694079
221 1 1 0.379105487589899 -1.058012316803789 -3.189044418178274 2.014098507013869 0.235322287142940 -0.555291918660297
222 1 1 0.368231017842237 -1.769494406931268 -2.484697212781671 1.313004975488523 0.009932358433025 -0.621275254697198
223 1 1 -0.340865847658140 -1.061230760593876 -2.477954291306488 1.255921330217531 0.216742731429054 -0.137291546012093
224 1 1 -0.352491882941364 -1.771485113617102 -1.756782204134268 0.521845904450227 0.134706270610554 0.529347091201465
225 1 1 0.375026396179072 -1.074163035517886 -1.773537394830184 1.649113432235106 -0.690605573330952 -0.322686494754337
226 1 1 0.370075055868437 -1.772454087294006 -1.062782955444125 1.435522014179470 -0.070798275914935 -0.006240949304923
227 1 1 -0.345909896528888 -1.056742436330020 -1.052911688326363 1.110764746730232 0.517139462420696 0.385205146739909
228 1 1 -0.348518518483481 -1.760102009111529 -0.358212835444355 1.015978953032698 0.745120426786493 -0.026892332876432
229 1 1 0.366031742600536 -1.080144585123915 -0.373911564584039 1.400682495505789 -0.769128472523145 -0.839373552373951
230 1 1 0.356044566489815 -1.772740325977943 0.325319415807030 1.068036906411961 -0.123463311349366 -1.365917962480460
231 1 1 -0.350209691489504 -1.071446561056305 0.342539758154979 0.982798821750037 -0.405274690946105 -0.411858165031023
232 1 1 -0.348509060770890 -1.756366003688729 1.039278637484345 1.147724545173153 0.601068782974794 -0.995435804346581
233 1 1 0.369488245223542 -1.063854531718528 1.048303866825165 1.665383117926347 -0.026618506659739 -0.791237660822085
234 1 1 0.344744289410613 -1.759946812401624 1.755221442126265 0.577753177744053 0.562470991630768 -0.828863886806185
235 1 1 -0.335486777085158 -1.062847176152671 1.767460677646838 1.794560710714401 0.156345337524841 -0.109814015975839
236 1 1 -0.352201657279674 -1.764566756313748 2.482851298981081 0.786913829038198 0.253445875514915 0.302695813942598
237 1 1 0.380334478120663 -1.057524293016024 2.467421191897319 2.206458154059791 0.205937158629997 -0.340867131829480
238 1 1 0.373194321331727 -1.753917799716422 3.158721244987325 1.589862555292249 0.909438733076036 -1.123687436741585
239 1 1 -0.329052639435545 -1.058926309939238 3.187942793175406 1.960791410358323 0.495064227953092 0.441513579303757
240 1 1 -0.325989274490544 -0.347101381497794 -3.193839536562066 2.149230898895500 0.570788888633696 -0.590267949036708
241 1 1 0.381995876766811 0.340863330564092 -3.182118482692204 2.086644741213375 -0.671058804722046 -0.251388481125327
242 1 1 0.366903191468806 -0.363743896312989 -2.481280915064337 1.238867460628747 -0.694961324164892 -0.505200073582088
243 1 1 -0.335428586311030 0.342243464429050 -2.482887332182447 1.480483404692602 -0.535299949585061 -0.532642188706508
244 1 1 -0.347538820324283 -0.362810953553093 -1.764893718297509 0.956326529773955 -0.361997169588721 0.355252347952747
245 1 1 0.366134978821388 0.330741320083763 -1.766734450408942 1.241090485061237 -1.014968870042503 -0.228124258102996
246 1 1 0.363605106389240 -0.373398567336617 -1.075564884547228 1.184546837241219 -0.860378037235699 -0.639334299825093
247 1 1 -0.346919889776484 0.338157026885051 -1.059169119780119 1.091656388595515 -0.688190963948872 -0.056143923888232
248 1 1 -0.337419813948234 -0.366695745809642 -0.367794725151804 1.551811084885626 -0.512071015124325 -0.455239685983788
249 1 1 0.368386797045470 0.337726095752426 -0.364036568945871 1.727518562554722 -0.639720348805386 -0.490246206326973
250 1 1 0.362860378388604 -0.368942761491451 0.337148617158145 1.531836988186992 -0.746439817428080 -0.894978793965316