ITEM: TIMESTEP
100
ITEM: NUMBER OF ATOMS
500
ITEM: BOX BOUNDS pp pp pp
-3.535000000000000 3.535000000000000
-3.535000000000000 3.535000000000000
-3.535000000000000 3.535000000000000
ITEM: ATOMS id mol type x y z vx vy vz
0 1 1 -3.157058058711748 -3.161444449975020 -3.264801889888202 0.260000753017066 -0.242113902028352 -0.744338425307847
1 1 1 -2.532442049576203 -2.463426727374173 -3.275066232415915 0.107891517840185 -0.680931280113758 -0.433416351206921
2 1 1 -2.511004932591651 -3.237481956128511 -2.505734200333815 -0.386431187663003 -0.988522465049577 -0.351821725521270
3 1 1 -3.176094496936103 -2.498619867670713 -2.560658747863704 0.097527414901382 -0.431523571963321 -0.932168904296277
4 1 1 -3.196524506855738 -3.261960196065663 -1.816086706353701 -0.267273880954773 -1.038992934008791 -0.398342967248671
5 1 1 -2.644399868631247 -2.552976254746776 -1.723430674260668 -0.992950893288783 -0.736853922218832 -0.236532730482887
6 1 1 -2.649562144511688 -3.105466958561081 -1.070888332985946 -1.123511525503275 -0.052681482562214 -0.249008116837027
7 1 1 -3.356002625936605 -2.539935307392566 -1.095476693854277 -0.344702646053681 -0.469084866171634 -0.789345823521325
8 1 1 -3.346956474512899 -3.101149306470009 -0.455684820759756 -0.725970859704288 -0.252364980540012 -0.917700015610693
9 1 1 -2.687536826485898 -2.408576960407459 -0.381020087743581 -0.239371907213234 0.523620166899417 -0.129868840607297
10 1 1 -2.672509711139588 -3.106911507292306 0.277993244029974 -0.431387637985702 0.591414877020730 -0.227301808368227
11 1 1 -3.317537519467371 -2.386048862544316 0.183983458774294 0.441479810804749 0.845053884729289 -0.349991959003130
12 1 1 -3.300054132788098 -3.104596530137765 0.899291606004548 -0.102012190630696 1.019843751037052 -0.352803063571154
13 1 1 -2.594498660432917 -2.361692360660578 0.920053349703404 0.637818493979268 0.516223334877466 0.094150780303322
14 1 1 -2.477720051172913 -3.094019323106455 1.694566414173715 0.572321849342155 0.453151747498043 0.734137050203254
15 1 1 -3.204640349642328 -2.337401657754559 1.586981546159404 1.093114510450214 0.458285463332060 -0.360223424184923
16 1 1 -3.106641936670683 -3.098077004245783 2.372825420220354 0.995034880012813 0.402206774216044 0.060122855006827
17 1 1 -2.507159189574554 -2.351641319574353 2.462408081538196 0.464748689820813 0.466838680025196 -0.257649539304891
18 1 1 -2.470272429832172 -3.118738603692187 3.154557623199239 0.375340292035634 -0.331056234371958 -0.476187583663768
19 1 1 -3.172046258458134 -2.363812275446736 3.111873557435585 0.524548298119652 0.343902463439118 -0.751609159301182
20 1 1 -3.173848428831854 -1.711895147325167 -3.236388957773924 0.243701685281103 -0.340945459284844 -0.704553382446188
21 1 1 -2.549339117562527 -1.019906066368239 -3.178845569846569 0.504289917261277 -0.080911332797169 -0.238846744948238
22 1 1 -2.569368582879224 -1.792333250161622 -2.447970306028215 -0.245793797465718 -0.513680904481504 0.218972141684761
23 1 1 -3.278897176598872 -1.010545477381182 -2.432248898478962 0.227211262570205 -0.116664094351557 -0.667725577385066
24 1 1 -3.344526853838936 -1.818375563573662 -1.724364917230730 -0.400544645158800 -0.552120134841313 -0.420475667322723
25 1 1 -2.652631773124185 -1.105121744180399 -1.723527246495274 -0.033970228290701 -0.208962701916635 -0.221729738925372
26 1 1 -2.687101284716881 -1.754004857068323 -1.037330989884285 -0.177860812457379 0.356309647908138 -0.459703201153470
27 1 1 -3.318355695791687 -1.001119270780563 -1.134935963066621 0.952482550335253 -0.016822429275137 -0.804097190371186
28 1 1 -3.354952080101642 -1.665639374814319 -0.497293539158966 0.082691564899070 0.658874673424423 -1.073149646847127
29 1 1 -2.673856143062854 -0.941094382346486 -0.455000055040054 0.654677952317707 0.913308723358805 0.143912141478938
30 1 1 -2.661639203780269 -1.643417304526387 0.193243650022100 0.575380049903305 1.246863896592091 -0.099553947768153
31 1 1 -3.356793893356464 -0.934048610587122 0.193749497410833 1.072923360958458 1.710476220177412 -0.286795706123244
32 1 1 -3.323362907234657 -1.627351268383596 0.831964794151657 0.839625127813213 1.328470931030122 -0.599460181850347
33 1 1 -2.540845576735340 -0.860803363453684 1.004691616927933 1.530434910776933 1.190296755449453 0.579416088602780
34 1 1 -2.546530511805985 -1.657615518969953 1.733042393425309 0.988430948977711 1.127031720041959 0.498937205975086
35 1 1 -3.212694768277685 -0.852357271366260 1.697014306060460 1.445015437988004 1.091847283352563 -0.028314660461881
36 1 1 -3.177566599955928 -1.616950280262563 2.470868704457830 0.777850182902991 1.053934571861024 -0.448061553562999
37 1 1 -2.427038015804122 -0.949701683350279 2.507409975259832 0.988489086723077 0.477970837324514 0.211167359207898
38 1 1 -2.442543424209629 -1.697738446360272 3.135753676784717 1.067859350499931 -0.076699288803426 -0.118866293863652
39 1 1 -3.184938480303160 -0.972208898076801 3.196823324116023 1.090235369302536 0.182921512780951 -0.610064366633693
40 1 1 -3.186068816352277 -0.243138209267564 -3.228446159323254 0.710778656847257 0.205485734166420 -0.720592010562789
41 1 1 -2.465878786458853 0.392041550941175 -3.224721362380948 0.408319208739832 -0.681466625461209 0.200409087997562
42 1 1 -2.527997617772098 -0.303253635146444 -2.485463136808086 0.472479087570554 -0.735621329867346 -0.014389424387414
43 1 1 -3.123102433681654 0.439286558469230 -2.510032542935480 0.684547880884872 -0.537368433487472 -0.386147398249824
44 1 1 -3.259024290021006 -0.326108663825540 -1.776451805266565 0.639424785146318 -0.047254045719939 -0.413560474184241
45 1 1 -2.605380755992539 0.363224617883882 -1.741133713235866 0.315605887111105 -0.129925871983202 0.447111980693814
46 1 1 -2.638650148510754 -0.235313159439347 -1.097674658748116 0.936555107750916 0.870578792220418 0.388502014753881
47 1 1 -3.227765496876164 0.385371517271636 -1.095953291840089 0.967015544518413 0.207455457761192 -0.173868385828411
48 1 1 -3.330519975554769 -0.254583697596441 -0.433291911607709 0.931194059400210 0.933689242225706 -0.594887973841594
49 1 1 -2.537978933005526 0.420123594448407 -0.394660812503238 0.701267670690214 0.463189226532268 0.536666474775784
50 1 1 -2.521969109678426 -0.189715548239040 0.252020786282806 1.410688660848014 0.856457927189252 0.593130855630870
51 1 1 -3.174303089058028 0.500181271012740 0.259971735321798 1.264286395835178 0.557462340364518 -0.161668922941451
52 1 1 -3.203883286099587 -0.112619896658254 1.028194913785927 1.398385835937314 0.932231682518133 -0.036002768969255
53 1 1 -2.507560941071740 0.498944439073118 1.014548159877314 0.582691912926017 0.879664735012076 0.446215053813134
54 1 1 -2.404483488651354 -0.216029095405781 1.830506432064392 0.695027547582270 1.289788925853523 0.462927854860429
55 1 1 -3.141314890213222 0.451494669038799 1.761540013008189 1.097007785859436 0.512670841748017 0.167619198313909
56 1 1 -3.156484505854239 -0.224254328930155 2.543781388001676 1.388797335119394 0.614906391598272 -0.174797014828138
57 1 1 -2.447693277982648 0.433886312589811 2.406438715576403 0.426349444428943 0.220815786842643 0.641531870010573
58 1 1 -2.454013697155187 -0.274226767396692 3.093189974923183 0.521902899482006 -0.015107831582576 -0.398732247210191
59 1 1 -3.115966825269913 0.427170523001008 3.109119241334501 1.072429705287838 -0.306660917269576 -0.078973639203680
60 1 1 -3.129474349876175 1.070500533950237 -3.261557654438354 0.399332040441790 -0.726428842355441 -0.823748234478506
61 1 1 -2.373330008513175 1.694642023272461 -3.178672947080679 0.561283538647522 -1.457892627154751 0.220803416055914
62 1 1 -2.410654697415636 1.006240500816142 -2.437908672421588 1.004530449220934 -0.981560576912903 0.485156600114944
63 1 1 -3.075299468930611 1.755798966988316 -2.427191766981587 0.814028147566414 -1.161663517200734 -0.078981150898874
64 1 1 -3.144425595714629 0.954074988651081 -1.740612643487337 1.237643377050035 -0.492863483207242 -0.059365487779837
65 1 1 -2.473519536728430 1.631365429551334 -1.674552713470182 0.234684247366564 -1.442775369503372 0.162488763411180
66 1 1 -2.494755581370461 1.002384173352851 -1.013571269137445 0.613001586572812 -0.822907084316879 0.048404146476696
67 1 1 -3.173506290204420 1.624295081547611 -1.010352369950333 0.621672512749836 -1.551117331862152 0.018203114695547
68 1 1 -3.219692660878143 1.064438693129662 -0.391462159776110 0.743579536749595 -0.645292232219047 -0.370729966450635
69 1 1 -2.443821634895122 1.730912253822451 -0.369975489619469 -0.001029927947072 -0.414461039439539 0.491922448303287
70 1 1 -2.454073821059574 1.118529193033770 0.285980700245078 0.770017159301275 0.137688776602911 0.393038094782144
71 1 1 -3.208983733847082 1.774162367312472 0.259492196418673 0.362676077422856 0.030251976079904 -0.180927121891421
72 1 1 -3.193529932803651 1.137317753845539 0.964003566319789 0.474953212442754 0.304770473835967 0.213488463579651
73 1 1 -2.517151120443241 1.781858602482108 0.971433408967111 -0.528647366215115 0.180252337084810 -0.056045140611401
74 1 1 -2.415373499835318 1.125293369140880 1.691024562916205 0.137246902600300 0.200618024850737 -0.032648117675460
75 1 1 -3.172811240199541 1.777191570207628 1.693862163751427 0.502695459092325 0.033220773639299 -0.346691117924940
76 1 1 -3.087198414319420 1.093167475002011 2.377539870084969 0.889351715609181 0.394357738307435 -0.131568948728844
77 1 1 -2.404409612122854 1.773397448824806 2.497546112115316 0.311040046077147 -0.381281628286496 -0.190193654009947
78 1 1 -2.407837223251414 1.060913018558974 3.179554263065405 0.586847852809001 -0.951119103450118 -0.177586779002869
79 1 1 -3.084337074808933 1.778634182534309 3.158215849110336 0.944683943368777 -0.436604592121436 -0.200853366342054
80 1 1 -3.112529560913234 2.488861974187749 -3.123680450248122 0.546746018275400 -0.868101531149472 0.114278589665587
81 1 1 -2.451381402752463 3.166799766609098 -3.178850719927290 -0.247569418589112 -0.929506778699784 -0.440677520329163
82 1 1 -2.452451347393177 2.386368690395508 -2.387735306482061 0.239202527549127 -1.055035694812646 -0.192592187384154
83 1 1 -3.146095783234428 3.139897863410140 -2.462273900503677 0.068285290928807 -0.238467214604443 -0.689037025105645
84 1 1 -3.190089838491133 2.283302800856149 -1.628714177854254 0.402612520140812 -1.222811788434444 0.185776156216635
85 1 1 -2.585134131483892 3.031678139522531 -1.653362184324756 -1.123115038485442 -1.411302175141711 0.092269089359376
86 1 1 -2.551607198478663 2.399525794793938 -1.043263035111488 -1.014353895517440 -0.892725373769440 0.031607224937769
87 1 1 -3.251971698962809 3.101866406371300 -1.095996942633905 -0.906178657358204 -0.949167478576287 -0.529724627833025
88 1 1 -3.243645530646956 2.491695109637620 -0.394132697468265 -0.612316290472216 -0.022756240209650 -0.401275534028554
89 1 1 -2.685023418941837 3.283206516228646 -0.329550761299426 -1.111218483762912 0.587826003111415 -0.156821302753973
90 1 1 -2.601400511637667 2.551297711677823 0.314543218412404 -0.908467424934354 0.348809258556276 -0.079180407911813
91 1 1 -3.359032644856354 3.263790430062140 0.292171108564499 -0.478213945956746 0.977933285448875 -0.104208018434744
92 1 1 -3.273300243008142 2.524098358044409 1.024095125407832 -0.359682512114222 0.289553537586808 0.064592530507164
93 1 1 -2.650746936763182 3.269257843703760 1.042252352635500 -0.512430712832327 0.593116335765056 -0.250724163581666
94 1 1 -2.526430906069748 2.529118802819210 1.830237408793288 0.181332286446662 0.369534247495296 0.663982986958173
95 1 1 -3.218523537653423 3.233048580574903 1.699201767745393 0.550711748665684 0.866851081308056 -0.589964785723555
96 1 1 -3.148153868076906 2.537577313247064 2.478886100175758 0.663968991791883 0.499143086503180 0.022103887001997
97 1 1 -2.408273620647231 3.190616431633896 2.508667558681350 0.239629841213729 -0.389325586516531 0.454623159222920
98 1 1 -2.383825248379221 2.440553737162019 3.227682564677367 0.324320556184669 -0.907250652360214 0.276836525526107
99 1 1 -3.092938950053661 3.240522269129219 3.170069253175468 0.380452860962861 -0.463489158788365 -0.073718128369699
100 1 1 -1.808706348162484 -3.191606807313865 -3.192615249618101 -0.231349227213460 -0.385921272775080 0.087610474957610
101 1 1 -1.116973981802958 -2.555559078869014 -3.076677807564968 -0.139412899622626 -1.204960816363025 0.235786408566677
102 1 1 -1.167508292514155 -3.277968888298506 -2.278739306622802 -0.848993392377084 -0.729586449658169 0.612401738707958
103 1 1 -1.895891680581304 -2.560910178136894 -2.353528105104730 -0.975304078597868 -0.850245518585378 0.459943414714527
104 1 1 -1.942034260171405 -3.233469000740281 -1.661505308796154 -1.315004957764437 -0.405875905183460 0.657215908650239
105 1 1 -1.283485000288181 -2.543926976170526 -1.517940749960768 -1.057979794680122 -0.545480344720783 1.134255128058540
106 1 1 -1.215277580262568 -3.191062451095485 -0.856113336258511 -0.925797450952240 -0.343671565366459 0.764098599406578
107 1 1 -2.029857437933546 -2.477614219027128 -0.867927265322513 -0.670877532939379 0.240049873968572 0.468297419655499
108 1 1 -1.947254348472292 -3.128897329606291 -0.263701985993592 -0.677319289043058 0.240407431366255 0.521385207931831
109 1 1 -1.148725530044695 -2.373129535174723 -0.263883947734956 0.320247955797664 0.395968853976132 1.234487075001909
110 1 1 -1.232631014662838 -3.114533471896394 0.462999757697768 -0.377712430198504 0.385703221100185 1.033260820914900
111 1 1 -1.943168916867964 -2.370539151909930 0.325513285276159 0.365800995996999 0.538701638404223 0.740753673211332
112 1 1 -1.844883094677230 -3.102167961738969 1.098542714817687 -0.047286861103745 0.936260888964806 1.355799981903823
113 1 1 -1.123795803320658 -2.467022049891306 1.089453569284152 0.417483912895676 0.261521740364034 0.761551616225511
114 1 1 -1.130316281232086 -3.162575999966298 1.818052550448728 -0.037246212715487 0.242158091740241 0.434133596965005
115 1 1 -1.793103963595697 -2.365054472618712 1.813649114109761 0.772128244527438 0.406875996858500 0.850471097772532
116 1 1 -1.790266990206437 -3.096028818019449 2.525281024167018 0.190366365261045 0.007885785947439 0.069434760579200
117 1 1 -1.029159686986721 -2.479946197135655 2.520879787079587 0.718914355481161 -0.200640582540981 0.477426503314532
118 1 1 -1.082525654350275 -3.260527246997900 3.212726898644793 0.633487341055579 -0.444542957644890 0.043259018787655
119 1 1 -1.798349230425679 -2.459288341594667 3.166458947932250 0.206145114450666 -0.019568163906969 0.215960603555014
120 1 1 -1.840571795924001 -1.721358539916228 -3.131155063816442 -0.072949281250464 -0.555059850453367 0.539224967241296
121 1 1 -1.173234252017543 -1.051952410213009 -3.194255517453726 0.141598410089248 -0.358286863895275 0.421900305545222
122 1 1 -1.228803578903216 -1.822817751534955 -2.388552499522227 -0.041365506994622 -0.446922099742727 1.055571462730888
123 1 1 -1.898916630760656 -1.085446542285522 -2.380936950643170 -0.036271883010568 -0.371282758568492 0.485921264102701
124 1 1 -2.020773393198099 -1.831978817466502 -1.586714582667067 -0.498069815991048 -0.356078452264234 0.542487525800805
125 1 1 -1.262759766911762 -1.035178308662043 -1.730220681092551 -0.260895331727709 0.080042117904019 1.027442637929207
126 1 1 -1.207320142079481 -1.680231952748230 -1.052253417606665 -0.165906149922970 0.485391542168677 0.604245532923677
127 1 1 -1.979403266974716 -0.934738929816337 -1.070429822356754 0.225394565882576 0.596609158946624 0.353465951300967
128 1 1 -1.913257701020689 -1.638848881852714 -0.401102508800520 0.332120563189737 0.831211136844277 0.734988074665156
129 1 1 -1.162860729810857 -0.864152989917646 -0.419458787413207 0.614297265261347 1.410569910519477 1.077529889693426
130 1 1 -1.177060669062502 -1.647480479593406 0.324526613545112 0.454784931368782 1.126971715155724 0.767094223060782
131 1 1 -1.847779902476578 -0.905457908990106 0.289518374967661 1.052675610424849 1.080566944887455 0.869771378098755
132 1 1 -1.829231927309727 -1.604547279157006 1.068261813244817 0.710031610232848 1.032892393681277 1.296845000936561
133 1 1 -1.101577202162758 -0.875859296071251 1.077089766707659 0.584218907495645 1.303395780050501 1.188543613706430
134 1 1 -1.077991029260815 -1.687861248951179 1.794963937948619 0.344092441384845 0.726949986513840 0.667283711965768
135 1 1 -1.741470465898038 -0.934179932004855 1.795515028533358 0.810842955211350 0.897689629669695 0.322657110384735
136 1 1 -1.721748376465340 -1.687113667670148 2.537496475853200 0.702610029364026 0.334772074236516 0.454685869761987
137 1 1 -1.030266901233328 -0.999379806314011 2.445203860242488 1.020794356131405 0.169218163795843 0.905851460812722
138 1 1 -1.051313489106578 -1.826091723034961 3.214590555742828 0.571946048986564 -0.662955879503698 0.780957417269354
139 1 1 -1.754067051239331 -0.980820241857875 3.172611199012477 0.723789603636745 -0.026492212219340 0.779544865622059
140 1 1 -1.860036891779222 -0.277320114857182 -3.179025115079028 0.017990106347619 -0.345713333665926 0.692018134320577
141 1 1 -1.079081174582290 0.314933813067119 -3.113522467406232 0.180473162737687 -0.561285268198194 0.786839741928357
142 1 1 -1.168288603285350 -0.357436704214618 -2.442544129343956 -0.432428904511543 -0.548818545441337 1.080136401497810
143 1 1 -1.831439769376033 0.350098082974395 -2.411905512805259 0.084412464470865 -0.449483206980372 0.845983040873362
144 1 1 -1.919166131457637 -0.318445515788170 -1.737546798092833 0.362213886929514 0.010928912936595 0.765691842674591
145 1 1 -1.147180761970524 0.409823090980993 -1.727094110066193 -0.745451710308889 0.823637099401778 0.373524389864793
146 1 1 -1.162536826713621 -0.221815629651642 -1.050178461166210 0.049550010466711 1.114717044647559 0.563330211509831
147 1 1 -1.878535095057112 0.352535489156557 -1.053910672854679 0.155148005194813 0.228248978686769 0.560907208527843
148 1 1 -1.869942428260059 -0.239861402981437 -0.414872198895934 0.802774542772596 1.172998984774986 0.786780695229525
149 1 1 -1.026972979873185 0.442462249234514 -0.331368165269994 0.873008000763350 0.130388524461726 0.376687818514159
150 1 1 -1.069163948001906 -0.191691389962155 0.359852864972150 0.551075991846223 1.075554105443757 0.861626327198084
151 1 1 -1.747107673122283 0.486516877346793 0.347166712549764 1.003024504346437 0.561508371509165 0.825791007580855
152 1 1 -1.776747472949722 -0.166834077161704 1.076930847826880 0.783536375963987 1.310444842624110 1.161728660143952
153 1 1 -1.032452047868075 0.402463462733914 1.097597133664824 0.412176404740266 0.388388020652091 1.028475693099838
154 1 1 -1.048796396093061 -0.241317147366542 1.775517798353007 0.327908472222527 0.446355711377349 0.744037114740758
155 1 1 -1.768320661087631 0.442852642298479 1.790143812252800 -0.062229942083241 -0.292949320760800 0.557592708840440
156 1 1 -1.736934507719882 -0.224916798719225 2.485481350448558 0.687305042371897 0.417318746583491 0.666847904519240
157 1 1 -1.060399189957967 0.346904339915853 2.450026689002928 0.422159159526211 -0.569683731610336 0.306974363000457
158 1 1 -1.084119286478629 -0.355960545604687 3.191356570494489 0.362632637079573 -0.373940811928076 0.413097699818288
159 1 1 -1.796663166807793 0.418274935882062 3.135756788625324 0.617421943542331 -0.433793764778452 0.441163336141084
160 1 1 -1.700869561988490 0.995589923271912 -3.171944430369249 0.040812914364985 -1.116242887981334 0.695893594054840
161 1 1 -1.012574937088463 1.560060319707029 -3.159783436884461 -0.176184751207343 -1.183303790221998 0.438771477855961
162 1 1 -1.073195864681950 0.945067122047638 -2.486219302742599 -0.498105913413695 -0.453526161654255 -0.013266485777890
163 1 1 -1.767057682464086 1.663842361487855 -2.395758863744335 -0.173040657621099 -0.712262044520885 -0.112436474215876
164 1 1 -1.778987809817751 0.956620189556847 -1.698104754540616 -0.340725384943444 -0.604048657491334 0.096419052743073
165 1 1 -1.067919104210693 1.579540354103485 -1.605763457466114 -0.315971231930600 -1.004233447423295 0.878085152423103
166 1 1 -1.033219104125819 0.990277285010933 -0.981929472612520 0.070125839607136 -0.251860402964872 0.388711472147170
167 1 1 -1.778596663572158 1.720775160150506 -0.988898211800061 -0.109412563228954 -0.734811493081238 0.636579622944686
168 1 1 -1.684592577377026 1.114242785280343 -0.383413160313760 0.312622222986571 -0.081757542116889 0.639260306341603
169 1 1 -1.007293473212582 1.723123310990788 -0.263983051154868 -0.058217996364646 -0.619150800639522 0.840555691381924
170 1 1 -1.017466478489852 1.028497114760840 0.381853243915321 0.112057234308617 0.144523590489009 0.832269444910275
171 1 1 -1.826633273141147 1.837551303453183 0.351571241490252 -0.733356423879011 0.020402132928189 0.631842392637070
172 1 1 -1.766924410763973 1.118798646096784 1.037329827331291 -0.676549315370543 -0.177897492505194 0.635891370236004
173 1 1 -1.112206836669964 1.651339063930679 1.142616827691134 -0.710057213976385 -0.255021636971570 0.980807029016540
174 1 1 -1.076807207077842 0.924914057673864 1.795678897449046 -0.426375494631938 -0.376036165832785 0.669484174117602
175 1 1 -1.769317005385205 1.753429652142279 1.840554574174260 0.005240579054102 -0.178006784101940 0.291260615026984
176 1 1 -1.732648948864323 1.053983706421545 2.452165690323733 -0.081524674894651 -0.779169487341736 -0.055939658478505
177 1 1 -1.006921945589618 1.668498906634310 2.552399517481899 0.165500548082257 -0.728702745629576 0.302229390017091
178 1 1 -0.975442984188818 0.900469294050547 3.251266211238973 0.424291224074843 -0.900474267131858 0.550910514968272
179 1 1 -1.677020987900277 1.707412069787033 3.264603534527211 0.306654137977298 -1.097504912000144 0.723450334905824
180 1 1 -1.761145472787039 2.315275877628297 -3.079239579040721 -0.539586373483826 -0.802709189441709 0.601972566931594
181 1 1 -1.160246025203457 3.032725208852504 -3.072155915115501 -0.548722447354162 -1.370157708214903 0.438829075522358
182 1 1 -1.125679646531717 2.319302822853764 -2.361823944500376 -0.444669280301239 -0.920517841004357 0.070805314425766
183 1 1 -1.885349368483965 3.071932845872032 -2.360697114016206 -0.855743418391949 -0.919282782228264 0.200693720424556
184 1 1 -1.828622364565546 2.306338234133137 -1.631776688032285 -1.026183740196325 -0.786786719930064 0.574830472808394
185 1 1 -1.185588185322151 3.098672260015773 -1.546032456770272 -1.341379641998208 -0.646248942310919 1.045533480830560
186 1 1 -1.115119562441313 2.411150566141357 -0.908028857442074 -1.125122894846198 -0.930888055479393 0.647397784011573
187 1 1 -1.967369565898463 3.220838668596663 -0.944578818944284 -1.748805796559514 0.165988757577845 0.936142983062141
188 1 1 -1.885956186643278 2.521224473896852 -0.322541045502438 -0.915440126852777 0.093094821523982 0.225938753418897
189 1 1 -1.219609568862796 3.195058674108142 -0.163383541053972 -0.804757884968321 -0.066559152818386 1.182868600260746
190 1 1 -1.154941907796665 2.441820568016931 0.505450867208788 -1.040758664409124 0.281811804843351 0.873847561168399
191 1 1 -1.960381298427325 3.239556613689770 0.451228614294248 -0.855019651670477 0.273858476145081 1.012761618617146
192 1 1 -1.868736470872166 2.515082603627210 1.193895995743090 -0.559550852539818 0.518540980161160 1.248721975785179
193 1 1 -1.184410049521442 3.134750257802030 1.187781222009477 -0.178121907203659 -0.009766709678152 1.813216590775054
194 1 1 -1.049324714341494 2.376262713352113 1.890584671503941 -0.194157709146822 0.000659118714772 0.854838436678274
195 1 1 -1.802813934645363 3.142271739079203 1.884757317911850 -0.316694212952183 -0.010417661019762 1.057704401476729
196 1 1 -1.702444035543343 2.421881158876555 2.611824372742671 -0.407166007862244 -0.222867789274248 0.828753930687115
197 1 1 -1.069429198342482 3.147494313783917 2.559435817909402 0.025619319474461 -0.734680424956906 0.346268433226480
198 1 1 -1.007231871824861 2.277438230737101 3.244040613712956 0.187618340230796 -0.863001467342417 0.450291492715165
199 1 1 -1.786229884102373 3.164540322131864 3.260080773239144 -0.091868980218439 -0.778432360569313 0.477002378261964
200 1 1 -0.385407520638620 -3.260724998659510 -3.074280982317442 -0.169714467535168 -1.194764147222859 -0.051761496098648
201 1 1 0.435196370416114 -2.431654247760842 -3.217839674774989 0.952937232090947 -0.438990279702821 -0.107330554531487
202 1 1 0.410492099026846 -3.162682767914839 -2.375064880617158 0.176273000786267 -0.714784193698916 0.106343589601752
203 1 1 -0.423545279496746 -2.483917666318924 -2.401904335147087 -0.301151109802289 -0.815335364828666 0.200332570016509
204 1 1 -0.446163896959073 -3.199990980067448 -1.610576975301182 -0.882496480922951 -1.419233901372307 0.643827979797664
205 1 1 0.266789952919327 -2.441969285330046 -1.778657786444762 0.078433431698397 0.412199624522212 -0.041824933439938
206 1 1 0.322405011826735 -3.138363033937164 -0.922281237955334 -0.249491351767963 0.167964008187194 -0.065362415707700
207 1 1 -0.472025585921295 -2.430188514113017 -0.977116353958547 0.108693587078397 -0.269385140040375 0.149690509730997
208 1 1 -0.486322284470706 -3.173829757089278 -0.193029794196731 0.080715244570681 -0.033965545756809 0.492874013994659
209 1 1 0.318122923399952 -2.405569023280284 -0.393744571064068 -0.050320491322276 0.771295712793319 -0.377880857468611
210 1 1 0.287166460451769 -3.170535316987080 0.320419391002627 -0.766847877188672 0.769595370712242 -0.358052999424857
211 1 1 -0.404837531894685 -2.448107550207040 0.318384032122374 0.094606442353961 0.492740855441087 0.401865545140659
212 1 1 -0.402933233643361 -3.205036418784793 1.106500220336692 0.099107772287443 -0.059144530395101 0.429333856781360
213 1 1 0.395389025636726 -2.420483335867199 0.943145900152107 0.405832932569208 0.697503992291561 -0.092927180813159
214 1 1 0.357302237825888 -3.138389457786972 1.780138890161222 0.226519318328263 0.158620204055762 -0.643402443635963
215 1 1 -0.345070699602886 -2.408529106899791 1.707955871467847 0.532617328225718 0.349882335100488 0.303896951931715
216 1 1 -0.385900245810469 -3.223982596923512 2.528325754199393 0.580966228368650 -0.523993607486069 -0.720359452344147
217 1 1 0.426978335825928 -2.452013262264934 2.403325946689822 1.203093423809219 0.050611726930017 -0.561698241330036
218 1 1 0.439286159701989 -3.190290602625695 3.178520286322363 0.554184571044500 -0.483506497465153 -0.505049868559571
219 1 1 -0.316460859214774 -2.560127879817359 3.222130996919924 0.671721075239938 -0.637514007101287 0.278579312946792
220 1 1 -0.431419003802118 -1.758359831960000 -3.255142793737723 0.359087821824979 -0.593000350399284 -0.203242377466873
221 1 1 0.318284289048923 -1.014280923397749 -3.291223901591100 0.449386800611335 -0.035944356515018 -0.524323116738422
222 1 1 0.279202189431379 -1.703755263223817 -2.579292133955827 0.520150492611824 0.776258074433676 -0.356927599558855
223 1 1 -0.474018319689009 -1.069257380993456 -2.499579454038693 -0.104184110509271 -0.412282122753009 0.366875358470817
224 1 1 -0.505820543486421 -1.731451770186945 -1.754675561619766 0.215258083347049 0.111569021341077 0.109365791982318
225 1 1 0.295866249304556 -1.026085997292549 -1.835790576790637 -0.408169067229750 0.843138615238083 -0.474929024909139
226 1 1 0.315979546593579 -1.739178283142350 -1.097584540196478 0.022063688425882 0.871710286441765 -0.534407203226645
227 1 1 -0.439478264334620 -0.963822515512407 -1.094553008416851 0.271937288859701 1.181159767544922 0.052250883935382
228 1 1 -0.432490558254891 -1.632602587521871 -0.406439083192852 0.477376434920772 1.054262467461066 0.101604960834091
229 1 1 0.316075606929986 -1.045846427313615 -0.454496940662560 0.151752817260865 1.219966934065923 -0.448695356230541
230 1 1 0.326612398368621 -1.758753086311871 0.199805098492721 0.166533797732106 1.238536123717612 -0.528623862139790
231 1 1 -0.442655421211132 -1.039699654224209 0.283204014650022 0.360948773495821 1.611430744513118 0.354715440363185
232 1 1 -0.431903241029190 -1.700217427692657 0.977688896990591 0.552324541199628 1.258939242599517 0.717067800813479
233 1 1 0.421506070204101 -1.004958025400929 0.955436556250904 0.845095529683172 1.259673849552539 0.112673081972515
234 1 1 0.399694555480092 -1.747952544698117 1.688954614885800 1.316339861567569 0.847900077899872 -0.656425500194247
235 1 1 -0.290461982354227 -1.074989417746426 1.743775832542096 0.861688596354524 0.720107610716536 0.404423151435875
236 1 1 -0.338099975735220 -1.798275479133741 2.500619213780983 1.354366051470415 -0.021632077112232 0.322120106444814
237 1 1 0.465804424917679 -1.042734437908668 2.361757107703554 1.233490126860679 0.275615179786582 -0.450993896038237
238 1 1 0.440161029958129 -1.751011496420969 3.032480116945877 1.414095794149971 -0.164441998894659 -0.614785139723643
239 1 1 -0.354261899309341 -1.076207664629378 3.135357276589104 0.726079839250658 0.101746447868853 -0.089189092329135
240 1 1 -0.375620281518613 -0.360761854530259 -3.212949199866844 0.161467289959375 -0.314513570188160 0.293347586916220
241 1 1 0.441508656610482 0.305199245943878 -3.209882973147113 0.151554621186549 -0.918152507518938 -0.792202784717301
242 1 1 0.284247481082638 -0.339973705945732 -2.506838646815627 -0.187803978446738 0.214743585483994 -0.514112362583470
243 1 1 -0.423454029842380 0.313015332695300 -2.522914630383393 -0.290742969801319 0.022250656862669 0.055296223700136
244 1 1 -0.506468063355657 -0.343255864007995 -1.772302139976945 -0.096958995522612 0.925775657701491 0.114266838097400
245 1 1 0.399001598497387 0.220557427511905 -1.787700398125241 0.056034398122275 -0.231191771587842 -0.475365007914040
246 1 1 0.363865104367499 -0.402899649517347 -1.077048167039583 0.498141810941408 0.332405929374049 -0.096986064755954
247 1 1 -0.316562326098900 0.274518412804873 -1.039819203022473 0.827038204138564 -0.142821426593458 0.195751010000808
248 1 1 -0.374719865865555 -0.320206533929679 -0.371692713095330 0.599602763080056 0.924989079946479 0.398705709319682
249 1 1 0.440924693466524 0.298533489236324 -0.332883879678000 1.223485189220701 0.162402462119477 -0.128447044869148