ITEM: TIMESTEP
110
ITEM: NUMBER OF ATOMS
500
ITEM: BOX BOUNDS pp pp pp
-3.535000000000000 3.535000000000000
-3.535000000000000 3.535000000000000
-3.535000000000000 3.535000000000000
ITEM: ATOMS id mol type x y z vx vy vz
0 1 1 -3.157460676774660 -3.169148343563636 -3.274088490264677 0.483515555954913 -0.999358217871183 -0.916131851238415
1 1 1 -2.526788373650066 -2.480203173933996 -3.276731891695649 1.054359899468842 -1.569942143980063 -0.628287589311781
2 1 1 -2.519404549260836 -3.257249233223229 -2.507821600703763 0.368992774096289 -1.656411092783547 -0.829387591340266
3 1 1 -3.173523443650959 -2.506994338149915 -2.573768360795564 0.735716012477252 -1.032549525082012 -1.454012672994924
4 1 1 -3.202482929089304 -3.280196519701511 -1.823888737024251 0.334054021794570 -1.330493057270671 -1.283866342372619
5 1 1 -2.659506706756355 -2.569557592127620 -1.721548069762381 -0.064249562844202 -1.248091464392678 -0.503895668812898
6 1 1 -2.670067973362583 -3.106264707753235 -1.075328314459047 -0.287926837353593 -0.406945502975995 -0.652718080943367
7 1 1 -3.365412179297743 -2.550153644244183 -1.108845863876859 0.056254398498690 -0.775744791987271 -1.224300627992353
8 1 1 -3.367281763939257 -3.106926046608113 -0.471957637651937 -0.401480526099573 -0.549284337310453 -1.194656318085825
9 1 1 -2.698295327289112 -2.398252422322590 -0.384211365061510 0.349936062632283 0.137850704349066 -0.666442696297754
10 1 1 -2.686002974303512 -3.095071678613154 0.269116150671024 0.200738517169588 0.141780689506973 -1.053316598952764
11 1 1 -3.323011880499537 -2.375080992282644 0.176875914475669 0.493318837975175 -0.080322805395566 -1.027616961545744
12 1 1 -3.309982417290148 -3.087574377044348 0.888429867852660 0.443872623728976 0.221644306352944 -1.103332848334879
13 1 1 -2.593576592101735 -2.355221971641031 0.925931184580192 0.849007723874729 -0.318525545064270 -0.181027951830461
14 1 1 -2.478382289815643 -3.088908315607791 1.705593464569839 0.797345606772672 -0.318623087152305 0.016417778259409
15 1 1 -3.196163392235302 -2.327289407469630 1.581575318809586 1.117992101112461 -0.159936187834638 -0.726107608506937
16 1 1 -3.098423106866305 -3.088229542220838 2.375566128019980 1.004132898548196 0.250802974970377 -0.332013794328896
17 1 1 -2.498456428805913 -2.341987056254838 2.463340891858811 1.491015476015199 -0.160267336696179 -0.340531238035897
18 1 1 -2.466198373836542 -3.128383933343038 3.154485036766475 1.026920469172432 -1.065372254220101 -0.328852685425482
19 1 1 -3.161813817835523 -2.357938199237306 3.100562267763397 1.412327656143421 -0.516052352885452 -1.052846994154852
20 1 1 -3.170858616288666 -1.718449341672922 -3.243743376271691 0.662545584649891 -0.853363373942435 -0.894215907154183
21 1 1 -2.539025979687505 -1.025246827673775 -3.173291038683886 1.189686522880505 -1.127344595469546 -0.251926111859076
22 1 1 -2.571910329524799 -1.804405151683852 -2.438622758420232 0.566776409213819 -1.195410054605453 -0.267975964161430
23 1 1 -3.283126825871312 -1.015334597623034 -2.435806023903500 0.229194782513187 -0.966452431037994 -0.781408323501683
24 1 1 -3.355141802983789 -1.831186737952184 -1.727840717785006 -0.082986049040991 -0.895672744980131 -0.978670731604997
25 1 1 -2.660438337254503 -1.110853856130669 -1.719742470222872 0.207078341347421 -0.803734541365071 -0.313173022498916
26 1 1 -2.700062261817849 -1.748675504141168 -1.039937244321688 0.015141327127122 -0.313260765164249 -0.629495096184392
27 1 1 -3.314734249644031 -1.005500248571082 -1.141424929347977 0.653206589054797 -0.792374351730972 -0.855374454016620
28 1 1 -3.366139138227337 -1.655881671649596 -0.511235041780842 0.104679970010270 -0.056971582808267 -1.302560368237017
29 1 1 -2.668599897160358 -0.929566888734577 -0.445111948557222 0.871886317830849 -0.087497287957664 0.157838948405750
30 1 1 -2.662654508883471 -1.623737472330093 0.194383791217984 0.536104770354167 0.081045817168035 -0.535967342384071
31 1 1 -3.350727258192676 -0.911502602145760 0.193443989716951 0.914148894133589 0.267635456580360 -0.231539869950326
32 1 1 -3.320787629988422 -1.605531709055067 0.821750483793966 0.712963130023826 0.171942007193522 -0.899519222947066
33 1 1 -2.518340059324928 -0.844834462319345 1.017034512423831 1.976270494975708 -0.233069598101321 0.149895753285650
34 1 1 -2.525735680769767 -1.638747372421824 1.746387622955875 2.082855450016120 0.234236651632418 0.181145211060265
35 1 1 -3.191396517709704 -0.833899057118030 1.698058703285166 1.878701813671850 0.115316745192160 -0.409784262470883
36 1 1 -3.162376946344643 -1.594680735066809 2.464939120216552 1.782326702533605 0.507374004950039 -0.711343851570965
37 1 1 -2.408375160470607 -0.937207061946171 2.514506969423680 1.891192900668381 -0.069505106629143 -0.139423715685304
38 1 1 -2.421218691391848 -1.701659020955129 3.142209236287780 1.903088262064064 -0.779585464881204 0.096739310256818
39 1 1 -3.171431376221866 -0.965194483161374 3.192539492876288 1.236253735954147 -0.266373376727821 -0.636562694652267
40 1 1 -3.181358318028810 -0.239039885807006 -3.231477855890954 0.662216195796767 -0.469199111533975 -0.752266564426087
41 1 1 -2.464398202482594 0.369860126727569 -3.210542306635610 0.723247646610737 -1.797847353097432 0.216678884827521
42 1 1 -2.524637674741724 -0.317534401049265 -2.475958740707564 0.824004216580851 -1.289385464437681 -0.127189941608895
43 1 1 -3.118960922886204 0.420857945509120 -2.503675678150415 0.628340540466041 -1.550961838461731 -0.116171137683138
44 1 1 -3.256178965367937 -0.331671224371278 -1.773372288973815 0.427927577491591 -0.962374333087526 -0.466214085248693
45 1 1 -2.606542483730178 0.352117454605917 -1.726761231228513 0.456094377806115 -1.021902237223008 0.072794104356774
46 1 1 -2.629057664920193 -0.225223058200615 -1.082287821732418 1.108870885717757 -0.107976404712565 0.267509062748823
47 1 1 -3.216625475740042 0.384897563247205 -1.089192408149124 1.145409556141889 -0.414865977881782 -0.123280229485060
48 1 1 -3.321133968425931 -0.243891671161200 -0.439891458424898 1.147691386408749 -0.059011251299022 -0.671368523264588
49 1 1 -2.529690334118964 0.430190801904408 -0.377847969280920 1.083557499819467 -0.083900350367176 0.307825739707529
50 1 1 -2.501119323071180 -0.176544520690169 0.267875051053946 1.859567142330799 -0.235826930553792 0.125598919566884
51 1 1 -3.160133749410635 0.510938808741761 0.261256067225439 1.436250768868326 -0.147850112611577 -0.408564655688276
52 1 1 -3.185787339799962 -0.096922716860107 1.027877538602189 1.721264498899687 -0.095705934537300 -0.452816559246210
53 1 1 -2.498534711762117 0.512918516049220 1.022089756117787 1.687525679719082 -0.186789767823999 -0.198289525463345
54 1 1 -2.393183369673299 -0.189924696695013 1.846961240661682 1.784629677830129 0.777329212589026 0.403305496952072
55 1 1 -3.131837715945666 0.461398330001489 1.764806008920370 1.392568651235418 -0.080962593600359 -0.513936751559638
56 1 1 -3.142410324442602 -0.203751323726612 2.545196791140468 1.550413053590127 0.733905869718533 -0.417721325814267
57 1 1 -2.443345438338756 0.443772700098580 2.426171297625729 1.192058738395161 -0.013367320363383 0.273505423089579
58 1 1 -2.445764217950969 -0.277408134313818 3.098068350912269 1.198655597447815 -0.840462840992853 -0.264527046656403
59 1 1 -3.105907178994765 0.424179062087645 3.112671440657683 1.032082716485197 -0.716317327971914 -0.484798153000315
60 1 1 -3.130208402573166 1.051481180261246 -3.269524312624909 0.503227819459051 -1.585317006467351 -0.616384322693206
61 1 1 -2.366069077861559 1.663305960910314 -3.170340335745027 0.907515780970421 -1.616545486446332 -0.239098222123110
62 1 1 -2.400669971536898 0.982718788374052 -2.429792361362392 0.587976039728578 -1.132894163925789 -0.577503249243172
63 1 1 -3.066292244289508 1.730821093186522 -2.423830639972024 0.878504964449162 -1.453805851459233 -0.392141521429321
64 1 1 -3.128789627086218 0.940940658007899 -1.736298073696495 1.166259389846800 -1.016381841886222 -0.297305456624234
65 1 1 -2.469102579114818 1.605389061043630 -1.664183032068306 0.830997512085164 -1.376565145978983 -0.169858371075113
66 1 1 -2.488787899059561 0.989948662246139 -1.005338636384819 0.873508883574058 -0.766993396413733 -0.008165515644320
67 1 1 -3.170114913127370 1.598146327250352 -1.005102886501489 0.822368122618756 -1.462325898392471 -0.180347599609928
68 1 1 -3.215186733311475 1.050251938929367 -0.391520136813694 0.872951494476789 -1.156616760084606 -0.253727168174935
69 1 1 -2.445177855775095 1.727173214529302 -0.363815913667771 0.922108517694601 -0.739137707672937 -0.296603944693459
70 1 1 -2.439021677470504 1.121087248740899 0.290972366829715 1.899404297775548 -0.612305365184306 -0.291862894789154
71 1 1 -3.206535783408310 1.771868678764975 0.249677508812718 1.205627889343194 -0.771697415500436 -0.977822769505972
72 1 1 -3.191484381309011 1.137486426574486 0.963463714699021 1.257969295331887 -0.862422567194526 -0.502161506616079
73 1 1 -2.533322163328667 1.782860846809433 0.962601098773731 0.266002940001647 -0.358709327581343 -1.078107369939869
74 1 1 -2.417080510589203 1.129579311945387 1.691749242191134 0.808971150505124 -0.104727291505012 -0.521372079049870
75 1 1 -3.176524064492249 1.778574143698662 1.681670165195093 0.613845031524769 -0.263162012866211 -1.105349880536538
76 1 1 -3.078196417835119 1.104087790033869 2.378746866657233 1.264324985664271 0.198645422755940 -0.289340806270635
77 1 1 -2.400734648843765 1.762328450086909 2.494875049527870 1.246998660253413 -1.278282967726276 -0.525463236508411
78 1 1 -2.401409001898511 1.035472960950907 3.177343647004223 0.971873586431905 -2.051999632328860 -0.529465053239956
79 1 1 -3.074892588654935 1.767986004962759 3.153981299273883 1.052704302956015 -0.835226545943174 -0.466448755587995
80 1 1 -3.110848374008361 2.469706600040370 -3.118549204922048 0.636029321864204 -1.088137855276302 -0.082429379637341
81 1 1 -2.459750703026050 3.147271081538389 -3.177560553692059 0.219418471171708 -1.387429157445456 -0.300411356142029
82 1 1 -2.452061426559342 2.367698379121359 -2.386684752016105 0.600545855987643 -1.126515483535443 -0.446918147057653
83 1 1 -3.148180192595434 3.133155341444418 -2.467519496156611 0.484370691631812 -0.784538930735109 -0.586506029651781
84 1 1 -3.188000033311780 2.261003063230493 -1.623066934475006 0.582291990308582 -1.356008675831761 -0.365017355794871
85 1 1 -2.609677244744339 3.007636966001703 -1.646296306715398 -0.445273624972428 -1.592356733554019 -0.122236879963600
86 1 1 -2.574421021891619 2.386185072765405 -1.040777317191557 -0.238973808224900 -1.092498060507343 -0.341762885513612
87 1 1 -3.276137400120608 3.086085479363847 -1.102698339377546 -0.657214320795298 -1.043158156514484 -0.733494769462675
88 1 1 -3.261671184139595 2.488536143012911 -0.403127462764990 0.155875883792663 -0.600210782573289 -0.739080016785715
89 1 1 -2.708130678682831 3.294453379205907 -0.334383444542643 -0.103785773311968 0.184116406222853 -0.522264845296088
90 1 1 -2.621417723891617 2.555005816554653 0.306658346103139 0.226532769540486 -0.345316093590866 -1.012907377606648
91 1 1 -3.378670710764065 3.281110516756998 0.281676603763229 -0.094692892298215 0.476530124992267 -1.012350794714919
92 1 1 -3.293349435930388 2.525922716278465 1.014725849763283 -0.152681047310187 -0.207296741965812 -1.186272561822233
93 1 1 -2.670174350055605 3.287606010554739 1.032381736916015 -0.160518425655626 0.632617997655911 -0.944139121152973
94 1 1 -2.530664856332471 2.537635141353467 1.843951112767988 0.512170579169862 0.328472938660668 0.456940369846485
95 1 1 -3.222231120852557 3.253068596075112 1.684122643093002 0.422350395635289 0.904313808970589 -1.031933273728839
96 1 1 -3.143419145277724 2.548671986222903 2.478920035128673 0.908050814752025 0.496185138331903 -0.149468337139632
97 1 1 -2.412112957842169 3.182535105888695 2.518456068044534 0.641795160953701 -0.788410817838533 0.238181440900720
98 1 1 -2.383667807678244 2.422945453864059 3.235190069147294 0.853898155678626 -1.054138592829843 0.008618401060392
99 1 1 -3.092995391079414 3.231094754799312 3.174314794340246 0.643044450009171 -0.815233705022989 -0.083234224898393
100 1 1 -1.810427140333059 -3.201107160080496 -3.185305060641050 0.806558462270235 -1.194423967099783 -0.155544892512425
101 1 1 -1.114573981895675 -2.579079752891216 -3.065023831292204 1.322655577974672 -1.876861154566678 -0.016162879515319
102 1 1 -1.176917108500417 -3.290874576882631 -2.261895398291686 0.672971785511513 -1.219562265613121 0.075225251682084
103 1 1 -1.906524837653942 -2.573684367620040 -2.337694077444263 0.413710644380819 -1.182111293631739 0.078906200697708
104 1 1 -1.964717876485504 -3.239235823391408 -1.645504463002472 -0.359389609977970 -0.867887458175374 0.063759506684591
105 1 1 -1.298404704966666 -2.550942600992529 -1.497132030640753 0.507106709051344 -0.772174756174324 0.324850703262436
106 1 1 -1.227755518374142 -3.196681621874085 -0.838468672600294 0.501777618748799 -0.712520140485106 0.430582738903836
107 1 1 -2.041808297466214 -2.472148360376103 -0.858876650125666 0.450791902869580 0.080586588094336 -0.219563604118649
108 1 1 -1.958451800201306 -3.124563124798213 -0.256042601473102 0.495210559743019 -0.094957493276947 -0.221147388269598
109 1 1 -1.149102117665554 -2.367212334653244 -0.242783246285150 0.937555445217978 -0.444950893438659 0.323900158158047
110 1 1 -1.245608968640734 -3.112054571576560 0.485511875002166 0.416049900200960 -0.626139712282721 0.598293574808941
111 1 1 -1.945353389434820 -2.364524344314198 0.344148635400032 0.772271406300259 -0.560397376436290 0.383178556140451
112 1 1 -1.855567123305888 -3.095587115824270 1.125175865665926 0.450126184813852 -0.361998661670860 0.709090368288533
113 1 1 -1.120740078354857 -2.462742819914170 1.105242411474621 1.336664709025600 -0.336022433449266 0.121715187852234
114 1 1 -1.135912842976216 -3.156948390687839 1.828337262218560 0.802801784740931 -0.268583043298935 0.103483561266245
115 1 1 -1.779604887946241 -2.356099763540771 1.833319339703262 1.669073958678744 -0.182310250487982 0.431030814214022
116 1 1 -1.788632532704270 -3.098790018559461 2.530912027934692 1.063930024136869 -0.767263499315865 -0.134124852133786
117 1 1 -1.018817277128923 -2.483347246672118 2.532303419194624 1.605332580628370 -0.923933050353982 0.039840852994192
118 1 1 -1.071946931955983 -3.271016514781250 3.219668363579652 1.585644590259852 -1.218780540818564 -0.097088272754411
119 1 1 -1.791667158984124 -2.462658814622907 3.176320859419620 1.244104046230825 -0.911407528305130 -0.037456037213035
120 1 1 -1.842490658360803 -1.732684877063356 -3.113541726914931 0.778843711537647 -1.191675228902850 0.192478306557491
121 1 1 -1.174866089975952 -1.064121566163733 -3.179670454635691 0.684992932564166 -1.465052734882344 0.215128897707154
122 1 1 -1.229468537262744 -1.829824797924694 -2.368332860773068 0.800722540583852 -0.921895384800198 0.196284760205043
123 1 1 -1.903102115449645 -1.094779098064353 -2.365686758160132 0.619336338387704 -0.998132950984345 0.120917218999395
124 1 1 -2.030736521363105 -1.837283502675794 -1.573665125985268 0.351623472298581 -0.596188629717532 -0.170646762220966
125 1 1 -1.276381362180406 -1.031549057117247 -1.704217378709160 -0.033712950087539 -0.551961511173173 0.769749944552865
126 1 1 -1.220268852548521 -1.671927515133189 -1.034442183767478 -0.007032771672098 -0.202807338383037 0.460144776742498
127 1 1 -1.979698201791420 -0.927241746148573 -1.054604506239284 0.753686635735619 -0.365303548119464 0.496399165014886
128 1 1 -1.911889154132928 -1.627712404039066 -0.384738642958989 0.920174558151594 -0.220078349056218 0.308011744506446
129 1 1 -1.158857528845338 -0.838139712613121 -0.393765656224454 0.761326704469410 0.268596255278091 0.782481158632027
130 1 1 -1.173107376730515 -1.632316170818333 0.341356911799564 1.110375888277664 -0.258577068100997 0.271723273322514
131 1 1 -1.829947450335218 -0.888929869521614 0.309613221368430 1.723072456275143 -0.194877850709674 0.538688849073164
132 1 1 -1.817663234801286 -1.588621354064356 1.093527984182841 1.587525846631130 -0.080005345740264 0.654248398293374
133 1 1 -1.097602117372080 -0.853934116943427 1.101961655265590 1.085341615385257 0.103201892936761 0.451938034960573
134 1 1 -1.075759775313323 -1.673763901349170 1.811214059629746 1.092581932872576 -0.183520174206273 0.347803761582040
135 1 1 -1.726605217064794 -0.916206351666204 1.807933940893276 1.834154027626429 -0.017069681352306 0.179840395887135
136 1 1 -1.704091684100264 -1.683743950348440 2.550111548241456 1.870357488897234 -0.545268841159823 0.139338963974292
137 1 1 -1.017934259075606 -0.997387484269938 2.467463816709017 1.375501987309716 -0.743224299175808 0.550322566007479
138 1 1 -1.042121946710084 -1.836846497819742 3.233193083863856 1.353862978672867 -1.173632440726380 0.269740769228218
139 1 1 -1.743048996173242 -0.986748906867491 3.195774507277577 1.237394421754461 -1.231614575935424 0.611147921146631
140 1 1 -1.865877609611610 -0.285903182014648 -3.160725273376011 0.479634996230194 -1.091001178227536 0.232295352214405
141 1 1 -1.082696352578976 0.305825134189935 -3.096633920987121 0.466073334561612 -0.937795809999644 0.127093075989406
142 1 1 -1.185746611522824 -0.360443320691560 -2.414207809010363 -0.261673019920719 -0.353970170347503 0.666918615517418
143 1 1 -1.837153916508393 0.336604145478095 -2.390654567265780 0.206147159497887 -1.153577796435231 0.382630992111761
144 1 1 -1.919326258247942 -0.320415660544304 -1.711093834500603 0.606190954209237 -0.703629190822278 0.811466947541669
145 1 1 -1.168382750157483 0.425291728241969 -1.712657734518629 -0.504649588053908 0.073808679016006 0.128550436007437
146 1 1 -1.168666367287151 -0.202169852591728 -1.029529783899408 0.203184785542937 0.224655659403613 0.590566503119921
147 1 1 -1.883150529439686 0.360750441010555 -1.036096513789302 0.450365614829959 -0.019781568662038 0.276356698651995
148 1 1 -1.860138724855500 -0.217022719410850 -0.392610196250319 1.259765613397215 0.304483375868158 0.736734009008759
149 1 1 -1.013496438650487 0.444298026698391 -0.313589947214998 1.375135968378489 -0.842504137270266 0.198015157798474
150 1 1 -1.065457766057460 -0.174026161297151 0.381815477373185 0.860131681496978 -0.035751078248031 0.356115018213790
151 1 1 -1.727645438142724 0.496616591265105 0.365352436066480 1.736946901426843 -0.272086491308764 0.368320131151852
152 1 1 -1.764127946190012 -0.144762562385368 1.103050729798075 1.487430711816218 0.224363496115224 0.903591149491878
153 1 1 -1.034820111281023 0.406624145141998 1.122224532369390 0.670613996163879 -0.609148301840193 0.551328887197942
154 1 1 -1.051331293029103 -0.234478769329537 1.797251949552858 0.683180426049099 -0.527379727687385 0.484983359709728
155 1 1 -1.768551454615030 0.442823765736940 1.803539812655309 0.806149526764133 -0.524630209767606 0.088983783286778
156 1 1 -1.727568802370126 -0.221151931472243 2.507212720716567 1.329188048811817 -0.622140302478499 0.581090407422933
157 1 1 -1.064261186083236 0.337759220818918 2.458204588938011 0.417113194412284 -0.974547356057179 -0.189731846879131
158 1 1 -1.090677237410748 -0.363135340573436 3.204527038339327 0.193418520472035 -1.060235765727970 -0.006887916561007
159 1 1 -1.793906280673478 0.404664458665332 3.148262136067076 0.646133360281860 -1.349905306716034 0.025772303541921
160 1 1 -1.706324355301596 0.972592008366144 -3.160092509681641 0.223725840690998 -1.556322022657312 -0.170351330647677
161 1 1 -1.023697976036559 1.540010171281467 -3.144150249602855 0.341144474976742 -1.301398995532721 0.110932695619480
162 1 1 -1.090474655747825 0.936566639742275 -2.478063531224097 -0.179330241058559 -0.955340965775040 -0.202877181221147
163 1 1 -1.775390869289854 1.650675349136731 -2.385685993100565 0.252850057790153 -0.954772425567046 0.182346449405627
164 1 1 -1.788415893722965 0.948417249332486 -1.688617024371634 0.116835317414751 -0.709566156787435 -0.230349781589413
165 1 1 -1.079759265376060 1.561725683545616 -1.577979238765911 0.297219026329478 -1.368563304685664 0.971120024946380
166 1 1 -1.035034785756914 0.984165792023198 -0.961123519280436 0.618052533965189 -1.025966449999191 0.710792406198253
167 1 1 -1.781473205713907 1.708870613577658 -0.971821430193184 0.711719949338546 -1.099072147617947 0.405208678000009
168 1 1 -1.678143064329672 1.115755848441626 -0.367871039985590 1.222491952923931 -0.588098993966325 0.304734253526158
169 1 1 -1.013177807909617 1.703460011869132 -0.244509311375473 0.660116267089441 -1.878570298465696 0.405614773720396
170 1 1 -1.024753859248038 1.025318428448288 0.399587792989840 0.425910543189571 -1.013407182728485 0.243919102164299
171 1 1 -1.845152930465854 1.832960680470851 0.360423580766965 0.218953676182969 -0.901254079542755 -0.052525207826122
172 1 1 -1.775041110401386 1.120178230760053 1.045124486451051 0.624593379273800 -0.515306465020721 -0.248234071657176
173 1 1 -1.136466613588255 1.640866618516831 1.155555165972925 -0.343608658506243 -1.020973893300233 -0.321532914249277
174 1 1 -1.096882956589179 0.914786826458102 1.802800028868442 -0.128971597119013 -1.036706463202249 -0.546500847974383
175 1 1 -1.779310515884099 1.749589331811263 1.841690762271339 0.431285121102412 -0.471290055484907 -0.577413170315612
176 1 1 -1.741459839563232 1.036037679112292 2.446639294426123 0.340290456465957 -1.491642277725011 -0.957813841280937
177 1 1 -1.016070627687588 1.652575058641096 2.558460339055976 0.315986142778804 -1.345766208199244 -0.217143223400630
178 1 1 -0.976309649187842 0.879592509395469 3.258355988092718 0.456704740363842 -1.395356790758399 -0.688418949800759
179 1 1 -1.678559161333388 1.684402616558034 3.277118393219183 0.487373770685933 -1.504676007996198 -0.025460358644769
180 1 1 -1.775882055144337 2.299168516836507 -3.063215420546899 0.004878218812851 -1.005212024890798 0.395966978284368
181 1 1 -1.171451960391152 3.004923987945886 -3.051926607474918 0.408700784989373 -1.874691445878203 0.651302759625868
182 1 1 -1.139881553711510 2.297346859870164 -2.347131877088155 0.200974382520348 -1.527474068779479 0.362696643342649
183 1 1 -1.901331450367423 3.051789281038197 -2.343655063775628 0.146779202977407 -1.609148325810745 0.384542208892565
184 1 1 -1.853151595564131 2.289859463926172 -1.611141073939487 -0.482936805277577 -1.412817627974486 0.541980464702126
185 1 1 -1.214874298791458 3.096482964852934 -1.519031193074919 -0.549421933862422 -0.761382283786929 0.637531486047428
186 1 1 -1.137530009812020 2.393547728071280 -0.888333678296347 -0.131119668898957 -1.461095397989471 0.675294477504724
187 1 1 -1.996263121051427 3.223742768341153 -0.929156609039854 -0.258128617507829 -0.246854766599425 0.093410567405674
188 1 1 -1.902139936839151 2.517882452336722 -0.315596859182531 0.249247693196796 -0.756387150084491 0.085055742174647
189 1 1 -1.233377511023145 3.192031033300087 -0.147233631217095 0.355126360286899 -0.764140409519301 0.099441420200116
190 1 1 -1.184386720866396 2.440423646126735 0.516035725702110 -0.688446082860850 -0.649670816023978 -0.159792794274174
191 1 1 -1.982072415577306 3.242023111082959 0.465765499434225 -0.239823061984152 -0.340636942419262 0.101610244902088
192 1 1 -1.890799473294679 2.521364537629476 1.211655492319009 -0.436438617594446 -0.078147579810037 0.207086005571911
193 1 1 -1.192160390989011 3.131102797124445 1.226760043170055 0.627117644051260 -0.708387018094198 1.420513783600786
194 1 1 -1.061512870153988 2.374425900481554 1.911743680294049 0.259694243253134 -0.634302765573619 0.723845721445620
195 1 1 -1.812652400175355 3.140848363627204 1.906949886453718 0.550452198749978 -0.518937349976792 0.769845359073072
196 1 1 -1.717116177564809 2.413794162415966 2.632779798095219 0.035550779476113 -0.902319720744350 0.785779835903640
197 1 1 -1.076153920145198 3.131898245334329 2.568416171936375 0.766849899672763 -1.209996038558507 0.070990086480584
198 1 1 -1.013524365066548 2.259413669506462 3.258277693014682 0.412571611113687 -1.302961230151533 0.250294669059151
199 1 1 -1.792754160683734 3.144745334421666 3.274708775863604 0.506051760656435 -1.457800184214359 0.260265977245937
200 1 1 -0.391143481756910 -3.279827935396082 -3.070389013924771 1.036303892604251 -1.562557896392065 -0.455104612344202
201 1 1 0.449590866839941 -2.434605994929415 -3.215589390414680 1.423491505503549 -0.503434726888655 -0.311839289111977
202 1 1 0.414623210507711 -3.170561988298322 -2.368178660276191 1.116124006252764 -0.861617853503887 -0.391532420250511
203 1 1 -0.430655019615144 -2.494569039032317 -2.393620695928345 0.659839012227652 -1.128900806961105 -0.294962868603016
204 1 1 -0.458304590044330 -3.220064835655367 -1.595599717942313 0.405154733306794 -1.684608096809544 -0.001936681158435
205 1 1 0.266127459255390 -2.429052049196703 -1.771304062224465 0.329508693280949 0.107208203333648 -0.316178038183011
206 1 1 0.316575045709832 -3.131084305018883 -0.919131319058531 0.468728685443632 0.005250258894814 -0.404264820721931
207 1 1 -0.476120274898971 -2.431398036916697 -0.969578735247419 0.806570042475564 -0.829455644876890 -0.308488223546242
208 1 1 -0.490376397612584 -3.176766386001180 -0.186400934866879 0.797339671586080 -0.754169636260034 -0.426727676462197
209 1 1 0.307622711042441 -2.389519993481628 -0.398854238216900 0.280525104885539 0.392491545809339 -0.868062229152859
210 1 1 0.266387794734733 -3.154584585918156 0.319499499553108 0.231202874808874 0.404761880353666 -0.435177580877106
211 1 1 -0.411970048644230 -2.440596663068182 0.327874640632483 0.708803238809339 -0.359792445807829 -0.187752092537213
212 1 1 -0.413206280556137 -3.206081308395881 1.116041096965081 0.744228548426939 -0.630607418117791 -0.115539307433975
213 1 1 0.386515927784306 -2.403767601737937 0.942090810801717 0.351256709100855 0.340502708479160 -0.697728128778791
214 1 1 0.349612079499852 -3.133768085060605 1.767342241850471 0.656331267736256 -0.429885895005465 -1.105689919806957
215 1 1 -0.348706617099134 -2.398522372135943 1.715421446689467 0.797488556843752 -0.308983264548182 -0.384238613087205
216 1 1 -0.382122218562542 -3.231946419095041 2.514120229959472 1.375895029471888 -1.047807905791857 -1.104393521580743
217 1 1 0.441625986855541 -2.445491456477928 2.393264771870868 1.765510714295625 -0.173619172835790 -1.096343127570086
218 1 1 0.447557367906825 -3.190186183835489 3.174847927382923 1.699993821099556 -0.126038231725777 -0.661278379668878
219 1 1 -0.304980251657989 -2.567798206566191 3.234073449309427 1.812141742175289 -1.084256444106197 -0.090922787043470
220 1 1 -0.430464380357429 -1.768245618810216 -3.256894427856178 0.891694675941820 -1.217829183902971 -0.662458672973057
221 1 1 0.318650327208269 -1.012368596050818 -3.291744167162354 0.494917755588627 -0.649937520042016 -0.411857523141653
222 1 1 0.283329363157876 -1.686898780937096 -2.577120203467451 0.655314136329620 0.165434560563789 -0.421893939914314
223 1 1 -0.488165068642805 -1.070910406797324 -2.485933474647632 -0.207707749430117 -0.662811629866365 0.087854755574777
224 1 1 -0.511860418334396 -1.725630577478959 -1.745924881899363 0.217206978207091 -0.345168034119824 -0.121388402009291
225 1 1 0.280726416776289 -1.006211154392786 -1.833490136932182 -0.337617426572789 0.246124745644414 -0.527730179349874
226 1 1 0.305668351034430 -1.718190626468311 -1.099759638186072 -0.198414533273073 0.452199606337172 -0.623402097563761
227 1 1 -0.444164106853586 -0.939761783557089 -1.082293445198989 -0.157483973269014 0.132713258807396 0.374987657258972
228 1 1 -0.430175030816162 -1.616211107411230 -0.402123099591828 0.689651119198670 -0.161478184080695 -0.349634623110159
229 1 1 0.313168194554134 -1.020398432220256 -0.454210258168187 0.543881938246391 0.580853052092126 -0.537711331923257
230 1 1 0.317313939743080 -1.731793821409011 0.193151598093609 0.134928081616949 0.862236534223595 -1.001537642085874
231 1 1 -0.445844847745947 -1.005374482916536 0.295297487167955 0.493038669176629 0.884660969519543 0.062126106895985
232 1 1 -0.432796080516024 -1.675340322100767 0.992634377598215 0.727868926715731 0.367340518668591 0.113582775686279
233 1 1 0.426944231645749 -0.980898565387234 0.963824799151571 1.040832900164244 0.437264061699449 -0.115021155173713
234 1 1 0.414344507235827 -1.728579804110821 1.681099627512321 1.414157092126993 0.339592113200245 -0.970514049841567
235 1 1 -0.285938294313135 -1.059954651719529 1.758360997751297 1.091340670441592 -0.028307460690315 0.180467290305497
236 1 1 -0.319185356277654 -1.796854676970857 2.508354769146983 1.837557431225190 -0.528284457781299 -0.176619400381550
237 1 1 0.484723530054339 -1.035081459711549 2.355929161156783 1.713713326491896 -0.392346654161104 -0.807642575353777
238 1 1 0.462006608225841 -1.742732318483319 3.019754707570045 1.797012367216929 -0.186108180668580 -1.071247181858719
239 1 1 -0.350434322061871 -1.073038415628696 3.140922697882953 0.784707633539570 -0.669463181612177 -0.292000478780406
240 1 1 -0.383713887619805 -0.363119557545461 -3.202378274564500 0.206865213426883 -0.538841006294756 -0.152629183391409
241 1 1 0.436667279077623 0.297541920632983 -3.217912746585281 0.741735107981865 -1.032616452799001 -1.007806943339667
242 1 1 0.272370173426781 -0.330953622773379 -2.507330810511449 0.101470787203765 -0.225520018310684 -0.796634482689465
243 1 1 -0.436230377287322 0.316550544429575 -2.512750384883448 0.192686549396197 -0.461887228761417 -0.293741072998018
244 1 1 -0.520342313703841 -0.325169597761377 -1.760720813968008 -0.340084907155590 0.132518711771623 -0.082255623846723
245 1 1 0.394766346252230 0.220134560175215 -1.776786998043081 0.363187074474356 -1.027884682279724 0.099362899831228
246 1 1 0.366994464980097 -0.392375317090765 -1.067037694266990 0.623211341073811 -0.212570326932239 -0.003490167781330
247 1 1 -0.306936095024196 0.275584620612486 -1.019874803084674 1.107787716231690 -0.705827353877482 0.623944672821132
248 1 1 -0.371104764921852 -0.302945220163599 -0.356296543830400 0.698938344191339 -0.059900091284767 -0.057279163867059