ITEM: TIMESTEP
120
ITEM: NUMBER OF ATOMS
500
ITEM: BOX BOUNDS pp pp pp
-3.535000000000000 3.535000000000000
-3.535000000000000 3.535000000000000
-3.535000000000000 3.535000000000000
ITEM: ATOMS id mol type x y z vx vy vz
0 1 1 -3.163626318252390 -3.176069032911260 -3.275878312124779 0.203645706470355 -0.830515219323640 -0.652712028647614
1 1 1 -2.518448247932862 -2.503406358579272 -3.274483584359879 1.053334300623481 -1.678558661269415 -0.099652656586428
2 1 1 -2.526989016989345 -3.281426635297947 -2.511189621515085 0.177795531688589 -1.752069597198908 -0.539036397229437
3 1 1 -3.176659103699590 -2.523300371599820 -2.590799031487482 0.192241149460845 -1.193134867166176 -1.331020468227842
4 1 1 -3.215911382690616 -3.300727062929545 -1.837046409978969 -0.152854017990264 -1.496299891908491 -1.161449081204889
5 1 1 -2.669859392838876 -2.584888854018902 -1.716989907829781 0.310293729099382 -1.204646097007301 -0.292819279728534
6 1 1 -2.687575166755364 -3.108287393024208 -1.071740198168753 -0.347912968705479 -0.510434068034594 -0.185356968715282
7 1 1 -3.377156788695787 -2.557538490307471 -1.117622287674936 0.196270387008127 -0.613078529327063 -0.850232993295993
8 1 1 -3.390599227488965 -3.107501565627403 -0.473844428543867 -0.504317774618893 -0.106891988102298 -0.353882972078664
9 1 1 -2.704540865297701 -2.389091318787623 -0.379154149825794 0.565596114298155 -0.005034485565844 0.188599232965104
10 1 1 -2.693799050001619 -3.084388956773022 0.261353450417931 0.247646370976466 0.138380682017021 -0.691338656921004
11 1 1 -3.329054224183714 -2.366469371980233 0.174870628207900 0.571386389816193 -0.048543134639488 -0.278745037124974
12 1 1 -3.322652579830422 -3.071786104026235 0.879100728902874 -0.078117851223900 0.419298799975751 -0.827885754528237
13 1 1 -2.592169568408415 -2.348139118090823 0.933028042915930 0.746381471085497 0.099902192846485 0.135688239770787
14 1 1 -2.485806716934694 -3.075269695550366 1.716117814117371 0.022180957657486 0.494999469979121 0.155692198958728
15 1 1 -3.195149229139781 -2.317928023333990 1.576821376577696 0.510328778290205 0.104599799444814 -0.512492746403381
16 1 1 -3.103778279187548 -3.067047453438956 2.376815693173111 0.209412363664755 0.626425830891639 -0.532881727008874
17 1 1 -2.484475127711339 -2.331297042354193 2.470152335881409 1.177614079257330 0.048657875638143 -0.026353508208198
18 1 1 -2.465978179383667 -3.131780550840183 3.163845876563060 0.509209996014333 -0.645262328484896 0.106289334258728
19 1 1 -3.151598733514358 -2.356304119134384 3.092454626758103 1.001098498209643 -0.046053115240715 -0.640256743572964
20 1 1 -3.170810918708942 -1.726954246844814 -3.248138858742792 0.630013990892943 -0.698920879964629 -0.599880348656621
21 1 1 -2.531433704546287 -1.038815151274412 -3.170692075716190 0.911810398807806 -0.950934907829667 -0.405216147119327
22 1 1 -2.572618997029338 -1.820362721872886 -2.433756138362416 0.849356622913838 -1.207820250610508 -0.363372566476165
23 1 1 -3.290544085466489 -1.029202163297040 -2.446566494216312 0.485244309136098 -1.121804360564256 -1.271506805315045
24 1 1 -3.368064811497905 -1.842314250027881 -1.738299097715620 0.302276226279176 -1.004214228823435 -0.985846374297747
25 1 1 -2.665919871128686 -1.120351887051553 -1.713252482108916 0.598431102303180 -0.879538887976273 -0.041460775226807
26 1 1 -2.710565370734853 -1.746889752038679 -1.037366075928412 0.338248668616086 -0.419292166314955 -0.009260088133058
27 1 1 -3.316796935480559 -1.012737256166633 -1.145685665598632 0.688790667205432 -0.707392458195156 -0.630937387366994
28 1 1 -3.379563789787458 -1.648874176115024 -0.518422247991944 0.341914194114713 -0.170919765527974 -0.464532356976905
29 1 1 -2.656910191200803 -0.921950423855201 -0.429738524265163 1.326988907648703 0.252564964510332 0.455269481104633
30 1 1 -2.655738064287479 -1.616913569597225 0.195735586673960 1.257764472588595 -0.178119904234363 -0.227908207147356
31 1 1 -3.340852384201192 -0.898154374707694 0.206379416821775 1.148775260588825 0.524173041838530 0.298128445610904
32 1 1 -3.317065740236171 -1.597160949847304 0.821701889360833 0.931945647252963 0.107154807478622 -0.098887785576833
33 1 1 -2.496052736718272 -0.839044985502755 1.028993053788623 1.395437861587626 -0.036715892244792 -0.069262736129377
34 1 1 -2.499277024049815 -1.622325848752747 1.760319110264741 1.908397025806379 0.395768537844585 0.138977265105931
35 1 1 -3.170761000237612 -0.819737775733539 1.697200723876949 1.350190286145370 0.444735617473936 -0.643762053026601
36 1 1 -3.141487322418765 -1.571585590875115 2.461075688679735 1.558543541008527 0.877917026873969 -0.688150640512177
37 1 1 -2.390104949234130 -0.928969369024136 2.523086992795335 1.328245498760199 0.206707060705909 0.127766475400355
38 1 1 -2.400948073076217 -1.708442645931906 3.157019594001644 1.584108936168540 -0.810599955467760 0.491140481233517
39 1 1 -3.164590012892572 -0.959343755346391 3.189661693558007 0.755030803412713 0.000473884140542 -0.669334004039538
40 1 1 -3.181497640576360 -0.241208372961694 -3.238861354397736 0.463264299639888 -0.379379575278728 -0.949486825880256
41 1 1 -2.465185144045644 0.345384344825952 -3.196945536622665 0.403055900064083 -1.562720743942371 -0.032966698794337
42 1 1 -2.520983088110954 -0.336657269519707 -2.470733331347471 0.801759370092509 -1.425120675481741 -0.369403027343547
43 1 1 -3.118203748556423 0.402079249528622 -2.499818962746810 0.555015225405834 -1.104277534685307 -0.646353531041858
44 1 1 -3.256874156868512 -0.342016950096952 -1.776129679320519 0.662595940080132 -0.809785212293841 -0.840204941282764
45 1 1 -2.609199600418864 0.341586514520121 -1.713587281124485 0.403259049708694 -1.083189226132087 0.248828862950841
46 1 1 -2.620188243753686 -0.220311484774170 -1.063732013054543 0.852986942364770 -0.062287489786161 0.425737000964377
47 1 1 -3.205784868669954 0.389106347726093 -1.078521094942599 0.985449169047379 0.032652099553349 -0.085205400103037
48 1 1 -3.306562981191573 -0.235551256531091 -0.435411702406125 1.327989654777730 0.249008696198849 0.033574483642671
49 1 1 -2.520014346739750 0.433272231228164 -0.355812842501407 1.221906351738564 -0.261982858321973 0.606015041061823
50 1 1 -2.479716499651268 -0.174242534929459 0.286754066041097 1.471186584210302 -0.307495613795327 0.565212160983295
51 1 1 -3.141532886561607 0.517522334012715 0.267090883652078 1.615760757514607 0.065982416742074 -0.215666339411764
52 1 1 -3.165839601556535 -0.088234225086025 1.028998671220970 1.411161376844562 0.282458500659018 -0.445702685104762
53 1 1 -2.478895255781207 0.519899942446689 1.027916583481581 1.457349230827104 -0.028068201309949 -0.334337396106738
54 1 1 -2.377985605926720 -0.163791939318681 1.864520454489171 1.130789677476562 1.062136321850552 0.440525393796337
55 1 1 -3.119144085939129 0.475165531813961 1.763025368802930 1.118936672812304 0.505873678751064 -0.757694923527412
56 1 1 -3.128402252232653 -0.180698157063947 2.544577986101994 1.053773793550297 1.094746075526139 -0.562711811194940
57 1 1 -2.447865527448011 0.453581587123112 2.436247685524319 -0.058303480176610 0.300405887748222 -0.146121758230492
58 1 1 -2.439817011572438 -0.281316386820629 3.103639969208887 0.709772484154260 -0.365728338277125 -0.115667839759213
59 1 1 -3.106906865831003 0.421996446001952 3.110030601590765 0.212194849446387 -0.264011970129947 -0.919436286195479
60 1 1 -3.139065644726738 1.033477234845667 -3.271813618758670 -0.097267219065589 -1.077593316257149 -0.795626966485909
61 1 1 -2.364077618557902 1.645344310240024 -3.164636389985701 0.574571662647205 -1.342765772512882 -0.182649898291933
62 1 1 -2.399849719482514 0.972724359220114 -2.430422750636855 0.801095600627437 -0.994784138666179 -0.619418026704876
63 1 1 -3.063381313003136 1.713761674520859 -2.427410827828199 0.808241960936171 -1.334678644433021 -1.046504984254423
64 1 1 -3.119327379976034 0.933837281231100 -1.734646271832612 1.031132505609682 -0.691160522907941 -0.626145596547495
65 1 1 -2.470507218902793 1.589344831168459 -1.658971011998506 0.564605046471281 -1.087242148486905 -0.189617271458179
66 1 1 -2.487313055233531 0.982762612008618 -0.992400702266445 0.816729479287704 -0.638338388551436 0.181820965457304
67 1 1 -3.168638814164682 1.580094071065979 -1.000236517798212 0.670296979005006 -1.186320893266893 -0.326112083893465
68 1 1 -3.208303405507446 1.036800249682031 -0.382933612714773 0.904547362744396 -1.036401129567277 0.013691060718855
69 1 1 -2.439251464606632 1.721832473697484 -0.351080804402403 0.752961685946186 -0.604719097057694 0.304252408060604
70 1 1 -2.417335595861879 1.117580632749617 0.298214499633556 1.278420005001735 -0.564079320159928 -0.052723214581961
71 1 1 -3.194566714902662 1.764503583071866 0.246527969684193 1.215044684077548 -0.593007674213345 -0.396670977295027
72 1 1 -3.182577280961088 1.129641370809185 0.960113893411364 0.978492600008984 -0.686889377461136 -0.985354721349046
73 1 1 -2.543472512674128 1.786053568062095 0.956402615483374 -0.050399220752738 -0.030588929924123 -0.599512981033009
74 1 1 -2.424359584559991 1.143701173155100 1.693255390547522 -0.116271686802112 0.770796103898839 -0.285362126802189
75 1 1 -3.184407873959525 1.787980742125063 1.670173222791404 0.003553685256966 0.326797171560902 -0.999515826101712
76 1 1 -3.082768994332174 1.117033746501729 2.377116096763027 -0.045039836388035 0.404450126903855 -0.625333103903404
77 1 1 -2.396739331991082 1.753589425900250 2.499523485003582 0.220930543435090 -0.586518931067223 0.004412696252846
78 1 1 -2.401424528770667 1.009386048872210 3.182626682437335 0.293187057775590 -1.556707132433257 0.039611805213924
79 1 1 -3.072815855418341 1.761233856786615 3.153820827358055 0.362309131678218 -0.591836935770149 -0.516376405698078
80 1 1 -3.120682529461317 2.459947860902489 -3.116218546966650 0.005523893486970 -0.827191367258695 -0.762456706764055
81 1 1 -2.475068995695775 3.134310375949432 -3.169792472790970 -0.154211909463600 -0.994458804282717 -0.056093345775131
82 1 1 -2.455882453328833 2.352563176061784 -2.382912912133567 0.464451090650867 -1.048852953711484 -0.239707716329717
83 1 1 -3.156061207878263 3.125093435903382 -2.464495191255686 0.110961063483774 -0.844132590378733 -0.452402486304783
84 1 1 -3.193355602611845 2.241095924634312 -1.624992951039550 0.414886887445011 -1.240688434830815 -0.864630584010908
85 1 1 -2.634235809972154 2.986197129273577 -1.632711066707422 -0.806778096114051 -1.572796943352114 0.174587734345113
86 1 1 -2.591653359468126 2.370791545046036 -1.027413057454073 -0.422205312892310 -1.092218222928157 0.407243261488904
87 1 1 -3.304362405571583 3.075767010000729 -1.098034801432491 -1.062519906815627 -0.782818217343114 -0.125515542724886
88 1 1 -3.277287532760092 2.482919673506046 -0.398244732337027 -0.237013107975583 -0.519237389850564 0.069429370109645
89 1 1 -2.728232808153172 3.302783318751508 -0.326723330441041 -0.594310301200294 -0.153555363953040 -0.011451872652395
90 1 1 -2.630702730043437 2.552274219100211 0.300382723050962 -0.048084279942714 -0.646471371993819 -0.747362192128588
91 1 1 -3.395000339763512 3.297662901116367 0.280597686232054 -0.276199995845536 0.440881671600440 -0.474017533497756
92 1 1 -3.312685597648117 2.526356173019565 1.005028311845308 -0.444088941568171 -0.281827047848213 -1.041753683217923
93 1 1 -2.693424961351352 3.309317621680941 1.025584096147997 -0.931697430669918 0.702862155098847 -0.801676538967565
94 1 1 -2.545211074418827 2.555495118799481 1.861680709557124 -0.642849855576266 0.635035149371656 0.452616305031348
95 1 1 -3.242493696557631 3.284339582614797 1.673468236686116 -0.932087045879876 1.303901753353681 -0.970269542281878
96 1 1 -3.151572349833783 2.566741177681269 2.481535021857376 -0.232589277249440 0.524232144894650 -0.465586929547058
97 1 1 -2.426334006219085 3.185129360085702 2.534201832343881 -0.371318914740367 -0.101359120222770 0.165330496436171
98 1 1 -2.387626557651199 2.415944237623851 3.247814130896808 0.128349096371749 -0.702371455513393 0.301506932642508
99 1 1 -3.102980910324677 3.237401712501703 3.179745339910708 -0.188863311470653 0.021050866620525 -0.416915453149059
100 1 1 -1.809245289660948 -3.217192173917763 -3.176928953263048 0.629837217439558 -1.345831829338634 0.031873427445848
101 1 1 -1.106376323879485 -2.613198808802620 -3.053449414850026 0.970110556492384 -2.169083426243968 0.273273828391569
102 1 1 -1.178918037003747 -3.312020069128245 -2.247129455313651 0.494322032289946 -1.606361452874477 0.390834213761733
103 1 1 -1.908219302479807 -2.595779621460823 -2.323252251939177 0.586980657486727 -1.685186625925439 0.096165445126423
104 1 1 -1.983130288092156 -3.252752620056649 -1.631502820906260 -0.291339134926349 -1.238820091765802 0.305007032473323
105 1 1 -1.293947178342253 -2.562136631958430 -1.477024386215682 1.345554968365275 -0.837770436744221 0.720301961658505
106 1 1 -1.223990749007893 -3.204754943267336 -0.815191145025214 1.181272138071324 -0.762293064994253 0.684164663426950
107 1 1 -2.040306055408236 -2.465127244530079 -0.845034877510105 0.985661464622055 -0.233781531957352 0.466167698925466
108 1 1 -1.960316017927304 -3.119374494452641 -0.243660696176225 0.660538315269384 -0.168332273008791 0.297507933914588
109 1 1 -1.143959642293929 -2.372547684174190 -0.221393304713385 1.076715828612989 -0.584489614760685 0.816053539534143
110 1 1 -1.254839626094672 -3.114304654375045 0.510544402684367 0.287965924893592 -0.353156724416542 0.956875480354575
111 1 1 -1.939972809972489 -2.368739636230086 0.363486050036875 1.155414093120268 -0.727788867065243 0.700294536367177
112 1 1 -1.866756262122148 -3.092520757833630 1.149886510209206 0.007868987968728 -0.220236716241423 0.934778639286461
113 1 1 -1.111127358393214 -2.458910810379864 1.130300072006930 0.986484769240144 -0.084462922664168 1.009097467286646
114 1 1 -1.141241167151594 -3.148962539889481 1.844222174670672 0.375216230681589 0.160993918153829 0.562053237961515
115 1 1 -1.768145922646535 -2.350886934283717 1.854649622082840 1.045615017374074 -0.288568870263108 0.693274657989277
116 1 1 -1.788914658884748 -3.101814868341816 2.543643262114057 0.448483012535750 -0.654558105396360 0.496126800630094
117 1 1 -1.004932176527035 -2.494831930284139 2.547853994088830 1.407146353479817 -0.927072949502890 0.768679534389699
118 1 1 -1.058443932271472 -3.283761509126358 3.228957902880661 1.241859468372275 -1.082749261812371 0.248723513774888
119 1 1 -1.782933698274738 -2.474763081512980 3.190663445820829 1.102343793435040 -1.167421244088369 0.455333508555393
120 1 1 -1.840085444041142 -1.754186675948597 -3.100528266074444 0.773068881254352 -1.542945724330117 0.141665955370854
121 1 1 -1.177817350342554 -1.080679545125118 -3.167151131631067 0.481993376642425 -0.932278272177113 0.439757559262154
122 1 1 -1.222245392298549 -1.842729844061867 -2.353173100665446 1.185437968292282 -1.004631206599881 0.453992047513111
123 1 1 -1.899161666567402 -1.110042712326891 -2.352922061403729 1.138652481386210 -1.241589453474854 0.149991489616177
124 1 1 -2.031035775638221 -1.846513104326357 -1.565063867677156 1.067663627319474 -1.238858761460231 0.201397134284226
125 1 1 -1.285825084119194 -1.036909578479799 -1.677734401090505 0.466633571461534 -0.488287591905082 1.246005805824993
126 1 1 -1.228761493600995 -1.674840367613565 -1.013746737141617 0.490771498863434 -0.511959104122430 0.808159793724921
127 1 1 -1.974362303226689 -0.929016586121343 -1.032831788503926 0.934457434517236 -0.324075734948059 0.846957109095005
128 1 1 -1.902372379438298 -1.628230846364069 -0.368151450967583 1.230806519848455 -0.537876567578515 0.510740541629698
129 1 1 -1.159321452802160 -0.829851181689362 -0.363613958307948 0.590962932606546 0.141663467940581 1.173796968973062
130 1 1 -1.170123811020062 -1.634006725815450 0.358515717680254 0.692759891010523 -0.574082503600132 0.483146753868844
131 1 1 -1.812299758444171 -0.889516814140652 0.333360624338787 1.237204067933629 -0.429441581966747 0.673267387387405
132 1 1 -1.807184230614780 -1.585265383816365 1.116787568626328 0.979964578248872 -0.287782929304684 0.671130541901716
133 1 1 -1.097833855474807 -0.840796340835945 1.125485557970888 0.460541063307989 0.516788716018787 0.916506816200071
134 1 1 -1.071575745601660 -1.665825857426322 1.833860377342784 0.685017684199881 0.286301523918624 0.872427494620228
135 1 1 -1.714446476696642 -0.906654204973893 1.825197218703662 0.826729563150831 0.321887301771952 0.528656611331087
136 1 1 -1.688819173252443 -1.689743365288518 2.566122578278796 1.065879773135753 -0.490081902317489 0.608051769671910
137 1 1 -1.007782014952733 -1.004126898628227 2.489948491300815 1.085853810220182 -0.500631741805688 1.098145277467934
138 1 1 -1.027871863074775 -1.853458352273184 3.247203191798154 1.405745334878359 -1.255960629206140 0.363006152858602
139 1 1 -1.735332333543953 -1.001504906628623 3.218533241437163 0.963897923557574 -0.922485680284197 0.755370621943412
140 1 1 -1.871072548986463 -0.300209623753883 -3.145571893916498 0.420592563133669 -1.052274075989269 0.416972054965285
141 1 1 -1.084962753540626 0.290861686754007 -3.084411442113802 0.602931107962914 -0.984040086580325 0.296744278774160
142 1 1 -1.201263867907699 -0.364133569857303 -2.387481780107019 0.022580483561840 -0.522166839237014 1.266739911132680
143 1 1 -1.846583756673263 0.322434888045971 -2.371465817238588 0.290796179878268 -1.124484365950803 0.479543919721989
144 1 1 -1.922894685883445 -0.326195536965378 -1.683369494072934 0.391887059860743 -0.644221833830211 1.135869518110048
145 1 1 -1.186523144846027 0.430041757797199 -1.697898922103875 0.002107278520617 0.048251292071436 0.347127865280909
146 1 1 -1.175401024123695 -0.196527167524203 -1.004254811913548 0.438672670822988 -0.054743280634094 0.805153656141476
147 1 1 -1.885196770252408 0.366011817208674 -1.015873086008401 0.772563620330755 -0.021144816235420 0.727292406773770
148 1 1 -1.850919750683586 -0.207030558524996 -0.362474053008506 1.020366936422002 0.092326614896085 1.123930083467666
149 1 1 -1.005123810789050 0.440120702564770 -0.290901498682398 0.644769946034947 -0.280573802834996 0.997472830627225
150 1 1 -1.064299803813556 -0.167074817369301 0.405350772475927 0.655464661455991 0.143592342093784 0.953171471906940
151 1 1 -1.710981540627187 0.499496332022720 0.387282832417046 1.128628905600854 -0.108280959134524 0.628083757854471
152 1 1 -1.757522877431501 -0.125853574875102 1.135205630523486 0.722430872177820 0.776096085251185 1.218012725497297
153 1 1 -1.034385527555286 0.411175375939306 1.145369702342753 0.657513572136114 0.461505037432293 0.807120235359009
154 1 1 -1.055565254911051 -0.232731384152663 1.820177356609467 0.182656073100022 0.109772253683619 1.229837248291467
155 1 1 -1.773139090913564 0.447237644404913 1.819580885797897 0.023521089431553 0.396342932932073 0.539564709840891
156 1 1 -1.722718183119823 -0.222124250416160 2.533094869950637 0.649480124447790 -0.142069671673509 1.222936472563506
157 1 1 -1.074019309448213 0.333562094037943 2.470203544864868 0.003452833146681 -0.115200267370050 0.583083421142116
158 1 1 -1.101356824033904 -0.369939100508663 3.215294063725544 0.103637492007934 -0.382285128980797 0.504432227327246
159 1 1 -1.801933177241252 0.391470182712201 3.164637927930291 0.036439608655795 -0.885656117003639 0.581172345708869
160 1 1 -1.713538824361446 0.953240894375123 -3.150494429141721 0.315579918323003 -1.326341824912504 -0.043128232848428
161 1 1 -1.028556261822914 1.521721284189091 -3.133630143891873 0.392917514377225 -1.298032026696904 0.085257650256978
162 1 1 -1.102596717930687 0.923609278919210 -2.470803116859438 0.059225025807295 -0.987112405684597 0.076311067146019
163 1 1 -1.784954899683844 1.639322195442474 -2.374093421134114 0.165546157354814 -0.786350690396173 0.067288535412101
164 1 1 -1.800150857227401 0.944995932949750 -1.677965399097213 0.148672527993464 -0.427285100881504 0.351958450528447
165 1 1 -1.085590461883208 1.544822098949075 -1.548758336073747 0.216390360259750 -0.665262855444160 0.799328519430874
166 1 1 -1.034989873774406 0.976038818194803 -0.932519821353365 0.563033907901514 -0.542264552953527 0.911296924148125
167 1 1 -1.782470056069326 1.694030278549307 -0.950592825592153 0.539607171108448 -0.921009728666856 0.810838771983412
168 1 1 -1.668914552534736 1.110847534790651 -0.343069650037460 0.820012460405394 -0.605126586946295 1.021951396100885
169 1 1 -1.010714686290175 1.678951155935155 -0.218020063266231 0.414473916679017 -0.754008062959131 0.451965957432033
170 1 1 -1.028235128089711 1.019656696224681 0.422199545303846 0.323842489879878 -0.283029285130561 0.881678674941044
171 1 1 -1.853861041453392 1.821409819225823 0.374845348297327 0.035733340693428 -0.726502245533779 0.364297103572496
172 1 1 -1.782507982820738 1.122054945793424 1.056309434446588 -0.075679575625455 0.073251052442590 0.234839419412841
173 1 1 -1.161212082266036 1.637604316958028 1.162844490926969 -0.571164368096114 -0.086402384276447 -0.188292039808702
174 1 1 -1.116974756636653 0.915458943064011 1.809581412727372 -0.584295173776919 0.261523404273036 0.199909440717948
175 1 1 -1.794051867898794 1.757885397367531 1.847147390687316 -0.664934515692434 0.444292881193884 0.122637675338196
176 1 1 -1.757737146543600 1.025539537424561 2.448415111153627 -0.601562444198539 -0.594787765552539 0.123650415168450
177 1 1 -1.025115004532652 1.636711603757329 2.571152497375957 -0.018820887016455 -0.950212271211501 0.471653323342854
178 1 1 -0.980976332800515 0.860008470336827 3.258216223843419 0.352399319154383 -1.176563036855410 -0.487328367900803
179 1 1 -1.683160524817152 1.668209731921822 3.288570571360637 0.389860527699734 -1.077197046332420 0.233860772424817
180 1 1 -1.792360101429550 2.288743158204681 -3.046974913663349 -0.115721224599346 -1.063688240477494 0.187314341573336
181 1 1 -1.182877909956346 2.976883418753169 -3.033691156992432 0.017921179037220 -1.662104594769222 0.321734010817140
182 1 1 -1.149207513602823 2.270296550106734 -2.327866321971071 0.250209780177015 -1.810354343942174 0.579404784273190
183 1 1 -1.919498920867694 3.022249217892534 -2.325307963018182 -0.426468717322099 -1.995508594668135 0.426612716509224
184 1 1 -1.878309018976643 2.266959906883837 -1.585684159232486 -0.727288356955296 -1.548507525732877 0.895712331270831
185 1 1 -1.234788281663009 3.079343287636915 -1.491956226893568 -0.206238349498881 -1.506097396198572 0.833684630789123
186 1 1 -1.145993963012362 2.375090086991503 -0.863335848761831 0.136047911354816 -1.114272095897721 0.566701209237853
187 1 1 -2.017099414278756 3.220088878861898 -0.913895739642972 -0.589435178559431 -0.761714294494266 0.186454730251243
188 1 1 -1.913651415724573 2.506614658176431 -0.296399067644059 -0.211289192784218 -0.975862392499802 0.382638484600439
189 1 1 -1.238921528656424 3.182352060050331 -0.134237833001521 0.461036835254898 -0.859108892916335 0.122957563786857
190 1 1 -1.213604184481703 2.434706085278457 0.524575791969925 -0.771683846855431 -0.661111992603637 -0.088630586685805
191 1 1 -2.006524517896314 3.249024133080321 0.470479687706545 -0.839968366981167 0.225809721117662 -0.635339643796532
192 1 1 -1.920761759735895 2.531289001237050 1.226533002912747 -1.338905394550833 0.234684956503152 0.331104450117376
193 1 1 -1.199988949858327 3.129490224536950 1.265348407519694 0.241497179208809 -0.322757139259684 1.520091898182334
194 1 1 -1.075815480512723 2.370717434169427 1.937575989489750 -0.428930757870590 -0.508181419084832 1.017470075240503
195 1 1 -1.827135435113682 3.149505862731146 1.931341743942965 -0.242531952626616 0.240650927477575 0.733561282615168
196 1 1 -1.734353831241082 2.407285782351742 2.659314236942409 -0.327529430628336 -0.840724174142583 0.950752296661826
197 1 1 -1.083824631270283 3.118048324376129 2.582532187246680 0.157449066096851 -1.030672608185116 0.476356509969328
198 1 1 -1.018661703057442 2.240328013197776 3.271799356195460 0.540019669912810 -1.373082440418238 0.256085713976248
199 1 1 -1.805624234555531 3.127013248401191 3.292807611656947 0.037498434804305 -1.339271819768344 0.565299096135757
200 1 1 -0.384036865331587 -3.300208174095630 -3.066084087619038 1.056216797434389 -1.223279259486999 -0.042993935565399
201 1 1 0.462456570062898 -2.430155167192125 -3.219011672039753 1.369334300179836 0.166205227187565 -0.675417912007232
202 1 1 0.425653740382050 -3.176256765722869 -2.371709631592398 1.508004491704876 -0.511187545151643 -0.749790199218743
203 1 1 -0.419246589727697 -2.507129587862166 -2.392976987221162 1.545380025339887 -0.663809183850331 -0.624007492910191
204 1 1 -0.455488018009803 -3.244791981750330 -1.584730564294100 1.116896291298286 -1.316607410085882 0.164758322134304
205 1 1 0.263719628714074 -2.424596374889300 -1.769683438944525 1.014012235309942 -0.246480029757582 -0.414534611302138
206 1 1 0.320563756713830 -3.123009043120952 -0.918438867133418 1.311113520840481 -0.023932838307290 -0.454908502963031
207 1 1 -0.467227583376767 -2.442559045981520 -0.963521188217828 1.449072899962928 -0.904700279312875 -0.118602152552093
208 1 1 -0.486214584930150 -3.186088260930847 -0.180033107696054 1.095776699845105 -0.609604467121623 0.069766166081588
209 1 1 0.299173051948697 -2.377931034838526 -0.406421145390290 0.536859328842030 0.155054584520725 -0.473012703333961
210 1 1 0.256638314339929 -3.132633963572886 0.314758782426409 0.300895258699854 0.589739468824991 -0.611659785598235
211 1 1 -0.417265764056502 -2.436059980311057 0.338409526644198 0.656048410187245 -0.009396765426802 0.251024001989764
212 1 1 -0.416167778580626 -3.203282899349260 1.130071931437207 0.569260313625862 -0.131036146673635 0.609381449327209
213 1 1 0.375430058956777 -2.383330946364600 0.940522386870627 0.119985523615784 0.663118093679436 -0.214615527954723
214 1 1 0.342576859116502 -3.118365529856321 1.756500092444573 0.101562244393816 0.401778766362577 -0.550057081847564
215 1 1 -0.352522624880402 -2.391995971090456 1.721838265186315 0.319818446162457 -0.192895913530189 0.265312454204561
216 1 1 -0.371867859628016 -3.239202371429165 2.508002322500543 1.157674236488594 -0.741046432955677 -0.300522726664564
217 1 1 0.459662796112210 -2.435290912213882 2.367338437974390 1.333289042353582 0.362042243731619 -1.431998005582830
218 1 1 0.465021179708230 -3.179033154997024 3.164413610463601 1.406196004142718 0.418304150252559 -0.858988891686649
219 1 1 -0.283401748057395 -2.576518694891222 3.237221164358858 1.808449510903681 -0.728351410196814 -0.162293587009588
220 1 1 -0.417705215378542 -1.787334249582032 -3.257291589707942 1.313009111001230 -1.106773001716773 -0.336333303637916
221 1 1 0.309813763480429 -1.014362654304937 -3.288368607131106 0.405678843941835 -0.206964831020197 0.035178881995207
222 1 1 0.286354548367535 -1.679229383281329 -2.579090098845723 1.233404124492465 -0.084804553098981 -0.400130742032998
223 1 1 -0.498490053419281 -1.075042343593592 -2.477704436067359 0.487824265510260 -0.378518918931381 0.125755865196494
224 1 1 -0.517551222370587 -1.728559788796559 -1.740739344989375 0.807926222164925 -0.531987740732112 -0.094449688299431
225 1 1 0.269378519806445 -1.002288576984915 -1.832017154340579 0.589422100681574 -0.325779279653443 -0.197274722203302
226 1 1 0.294057980716127 -1.702010375724562 -1.096920165078315 0.457048787806598 0.296911508981408 0.018709907971755
227 1 1 -0.456009641500751 -0.931848986517016 -1.059649428382607 0.347139917408397 0.135023541486959 0.780199462475177
228 1 1 -0.432553753136258 -1.612823635597449 -0.394609177812753 0.746678946745250 -0.145838892077786 0.219065053112139
229 1 1 0.310783149485223 -1.000697245754677 -0.450467885921328 0.656113963739586 0.655100748014903 0.132327917723335
230 1 1 0.304451414260629 -1.703759460459770 0.183833380925431 0.110721457598543 0.876572154331696 -0.444303306899493
231 1 1 -0.451547162888034 -0.981722080116980 0.309569021096015 0.477121095095310 0.896071146736544 0.557210615185701
232 1 1 -0.433813365589150 -1.658669832693744 1.007889045838978 0.670705236661903 0.421706932379564 0.506072296357756
233 1 1 0.429351963311986 -0.958905502182177 0.973296651468117 0.547746988249369 0.914884975375179 0.418723368162308
234 1 1 0.425699415211982 -1.709726350846484 1.670405269836672 1.040235182233027 0.625506065620256 -0.553924440231067
235 1 1 -0.282897181591854 -1.047611300377810 1.770336855692531 0.416702565146819 0.660895862461996 0.270833842390613
236 1 1 -0.296901265300731 -1.799294755864554 2.510351858624000 1.670344733149132 -0.468552698003505 -0.103094390350967
237 1 1 0.503942794598287 -1.026082716817972 2.344356358015989 1.452518368591116 0.731254208574483 -0.586219927508163
238 1 1 0.482868980603373 -1.731781609027300 3.001615151214218 1.618409311761613 0.588051642556363 -1.036075108450018
239 1 1 -0.344621445868431 -1.069693585560300 3.142180366968735 0.986432808103802 0.364115597411243 0.066131635849815
240 1 1 -0.390681727868125 -0.369244890876871 -3.192207002199636 0.519646210381105 -0.538259529140065 0.383569778735361
241 1 1 0.442238787750946 0.284698025435651 -3.221189334847670 1.138498549041161 -0.638790907098815 -0.363747281960486
242 1 1 0.269283512592274 -0.329873159740011 -2.508483533530089 1.022216538672768 -0.230250403916586 -0.194581608482771
243 1 1 -0.439919759033296 0.314764815744339 -2.505813362161026 0.702161523887060 -0.310168814610102 -0.056977109924512
244 1 1 -0.534449509593638 -0.320371013667505 -1.749014565870159 0.334484302754312 0.020843805165148 0.293996496858323
245 1 1 0.393434843402049 0.222095187933787 -1.761704488772736 0.973678061871855 -0.024918908192082 0.315548126958703
246 1 1 0.367710168491778 -0.382639302521918 -1.057221325409545 0.897122926243868 0.334518042775040 0.292339495904654
247 1 1 -0.296364136122833 0.275617203661515 -0.995481668184496 1.370421700888049 -0.011579270404002 0.646698262161975
248 1 1 -0.371235609828397 -0.297436006948013 -0.343024234782620 0.805741392963520 0.078161272846802 0.514269972025914
249 1 1 0.476795456104901 0.303575583660036 -0.319050385666794 1.362353226122123 0.261424906764457 0.072740291130516