ITEM: TIMESTEP
20
ITEM: NUMBER OF ATOMS
500
ITEM: BOX BOUNDS pp pp pp
-3.535000000000000 3.535000000000000
-3.535000000000000 3.535000000000000
-3.535000000000000 3.535000000000000
ITEM: ATOMS id mol type x y z vx vy vz
0 1 1 -3.185479135985922 -3.160028318011666 -3.188341964258725 1.096313013239239 -0.369425745638022 -0.016876928939891
1 1 1 -2.494037035745833 -2.453178050420096 -3.182431498339316 0.314667919193208 -0.549414675374554 -0.025676021185622
2 1 1 -2.468744684513946 -3.192091965581904 -2.450792858503104 1.023981302074483 -1.181778529672014 0.285455673816494
3 1 1 -3.182082173501678 -2.489683995844302 -2.451419091173748 1.206958001919594 -1.128183961189470 0.141126787130928
4 1 1 -3.191960078090079 -3.213216520061751 -1.750796169382441 0.827730320643357 -1.280346408569752 0.340419652184400
5 1 1 -2.507365230836120 -2.486275020448618 -1.736745992161482 -0.133872606910658 -0.976738580541044 0.715783265886871
6 1 1 -2.494340370141566 -3.176621673018474 -1.038195506767997 0.069560755529798 -0.489872732568939 0.721717433464994
7 1 1 -3.230428068087994 -2.485938599223775 -1.036269855291905 -0.559372639728842 -1.078651006711445 0.679919238727726
8 1 1 -3.233150123754739 -3.174910136858376 -0.357265145460220 -0.466748159442749 -0.232784123448536 0.263896448726128
9 1 1 -2.537668944309561 -2.473466301839100 -0.358318947204004 -1.291667912489190 -0.616876041578401 0.063976707390077
10 1 1 -2.523592191022068 -3.163400467841093 0.329606141445583 -0.789379992524057 -0.508892852655333 -0.545006499527098
11 1 1 -3.246058490122659 -2.462505448042111 0.323382959388707 -1.061766511340820 -0.514484066772554 -0.581790671776917
12 1 1 -3.228282036770189 -3.176560450608096 1.024829547351668 -0.591148725343001 -0.462987623886471 -0.720569993770858
13 1 1 -2.541111954745759 -2.456602930855472 1.008902133723127 -1.271356950814152 -0.570214509868115 -1.262077627848543
14 1 1 -2.494399192046297 -3.162654345922096 1.711506940020753 0.083192534598831 -0.910150815844584 -1.203998848976140
15 1 1 -3.227209548721652 -2.463141344730787 1.720542096058793 -0.500615484860320 -0.701472773188753 -1.126229651997931
16 1 1 -3.188027668302821 -3.153957554040107 2.425839644993325 0.548797002498995 -0.420978334580295 -1.051431747791300
17 1 1 -2.499618505804792 -2.441291768102051 2.450736448895348 0.188357932981480 -0.425129445355006 -0.438612869190921
18 1 1 -2.486951997261890 -3.160679183386876 3.166199435589749 0.397387919170516 -0.448548769986620 -0.162263335924329
19 1 1 -3.196322748280919 -2.453910019035837 3.165629126603756 0.454304672759379 -0.362576755138388 -0.154458185659117
20 1 1 -3.179158013998193 -1.740401247821722 -3.169930488140686 0.977433449960258 -0.019260050105688 0.251061457323607
21 1 1 -2.493191554070164 -1.048176777042417 -3.165664816132248 0.258524694356897 -0.212171235335031 0.442119021647395
22 1 1 -2.503980449739661 -1.768685133747878 -2.459943779231251 0.559193617668566 -0.730395860842767 0.100409674198670
23 1 1 -3.215493803151205 -1.057473152980258 -2.449936781456537 0.310482185246838 -0.446578413333472 0.627753745941287
24 1 1 -3.217213138376462 -1.778389992242859 -1.728724007728140 0.000029339365795 -0.875073562529424 0.885808950309116
25 1 1 -2.504870565206613 -1.060021747750084 -1.744093914358795 -0.630518460387036 -0.832124854469536 0.794822649302009
26 1 1 -2.554080533890732 -1.778097451911091 -1.041051859404134 -1.411612858361068 -0.896151398188005 0.637668857415587
27 1 1 -3.255856306007071 -1.040018075853973 -1.050141467618188 -1.173000725295204 -0.469502727862601 0.176581739036456
28 1 1 -3.248883870379788 -1.756441091638982 -0.360898048390476 -1.084396513713761 -0.313399103801580 -0.041502213615944
29 1 1 -2.530222667543936 -1.044942284689056 -0.380419687365810 -1.253164350421447 -0.345403810377398 -0.548024763292149
30 1 1 -2.549066965045252 -1.761572895188397 0.309293683929569 -1.538178966303159 -0.508853329733180 -0.856571100849498
31 1 1 -3.249551763455129 -1.054522929488574 0.312799921628908 -1.178536055567136 -0.598172005955903 -1.109652800399222
32 1 1 -3.245351476779009 -1.750509109340061 1.009831630171665 -1.140973957603610 -0.286369519459097 -1.374172443508287
33 1 1 -2.499883299856136 -1.025121490348633 1.041339567571484 -0.263104461967435 0.054259200468849 -0.685488511800305
34 1 1 -2.508689084956008 -1.755623565021180 1.735352817528125 -0.524164377773169 -0.611052929623490 -0.931930899677597
35 1 1 -3.193672611082465 -1.032639889583965 1.743328300198938 0.105088337786644 -0.020374551359525 -0.619603179879124
36 1 1 -3.193002419587633 -1.739476760884314 2.472982795286485 0.413626739937850 -0.011545864152305 0.008420583111414
37 1 1 -2.479593618727854 -1.033376472224692 2.485520860214403 0.483429229304163 0.025488256752082 0.516294444407061
38 1 1 -2.489757219612264 -1.748609892823803 3.172553916097958 0.550179589323065 -0.201659093646039 -0.135098588600969
39 1 1 -3.184909007247445 -1.041805895405340 3.188374426004350 0.703880952193551 0.031967332661177 0.391763141433794
40 1 1 -3.192340100871469 -0.317949641716388 -3.176766627227051 0.705585231402462 0.082781129855528 0.216193929343024
41 1 1 -2.471980209550343 0.387048779047769 -3.204733306134284 0.964019934894509 -0.105716298407887 -0.365613923953057
42 1 1 -2.477999156332801 -0.307155256972220 -2.453854547841458 0.562752971339985 0.330176752431839 0.429218882275334
43 1 1 -3.181028905214641 0.388381192468206 -2.467775241646175 1.503626124747386 -0.084205244452057 0.104579538946814
44 1 1 -3.225751253499862 -0.334261328841821 -1.734398784160135 -0.272638016416016 -0.597843212848431 0.786286591535558
45 1 1 -2.510474219087230 0.359427776928224 -1.751287418895058 -0.326017450993651 -0.485277800825711 0.583191340597957
46 1 1 -2.513946110510418 -0.321195012872850 -1.060523205964044 -0.603848920953204 0.132407393621229 -0.285673673428273
47 1 1 -3.222032038280860 0.370526447439681 -1.048709908761306 -0.231706993550248 -0.481488867990365 0.244745181063150
48 1 1 -3.224471957463147 -0.328600237507549 -0.358286190729696 -0.542833348593986 -0.118949628771897 0.122342847738692
49 1 1 -2.496070759060198 0.351277455277755 -0.365580663193086 -0.041686529999637 -0.460573944469105 -0.025299160607621
50 1 1 -2.499103281572837 -0.325737640022381 0.333034920223211 -0.192720918043721 0.076116445339619 -0.661894423297796
51 1 1 -3.195480320437785 0.389316027607273 0.343918592974267 0.255340391803340 0.518794951851860 -0.174117607068991
52 1 1 -3.201740056618356 -0.317011081536384 1.058144090243127 -0.102056006937228 0.431692730208524 0.001823740836574
53 1 1 -2.477806551480996 0.371566945366381 1.044144118280601 0.671042792936282 -0.003866105154544 -0.057741022328760
54 1 1 -2.471034551617343 -0.335185092692474 1.786759304718911 0.630919679077288 -0.221258558773588 0.582530832084815
55 1 1 -3.182127121311488 0.367974819802344 1.774029045010012 0.735710296560110 -0.095320288981942 0.478880877179902
56 1 1 -3.186019397355492 -0.318073292106548 2.507565531491942 0.638393936525281 0.255751944140129 1.105313440920002
57 1 1 -2.452354923049198 0.366102819128344 2.444343632178013 1.302385758750257 -0.264737876179766 -0.244803112016586
58 1 1 -2.465154010866286 -0.340515658479684 3.158172143947162 0.784089922079297 -0.241196709795467 -0.301446572323790
59 1 1 -3.176109645847861 0.377072424445030 3.146604247919934 1.031491997551846 0.066623867508835 -0.440778345977528
60 1 1 -3.184226901285209 1.099290629991756 -3.203054747797418 1.300631950259428 -0.197889636170776 -0.355180882875384
61 1 1 -2.477479620981256 1.806568215954430 -3.165633647473706 1.096835739224604 -0.092731068486387 0.254155296195495
62 1 1 -2.482294711647687 1.084227885692008 -2.459498279035964 0.811749894825056 -0.485574072521271 0.520551323235594
63 1 1 -3.195282440617555 1.808215927649313 -2.453642099005202 1.133577382445933 0.143094956822787 0.427135207509999
64 1 1 -3.210072922049760 1.048270358002770 -1.758511168818663 0.450119342273209 -1.377110826759611 0.244315948449384
65 1 1 -2.479437668046701 1.764648180557037 -1.731186233006812 1.017675684059328 -0.767676581681747 0.588143685348167
66 1 1 -2.493701067920693 1.065125189056516 -1.048917688978622 0.419575617321397 -0.429269119639414 0.474324093033433
67 1 1 -3.199442203477735 1.769059773609655 -1.042625382165109 0.728907327904151 -0.864348867672787 0.593870306529198
68 1 1 -3.205486333757741 1.071781587853694 -0.360610831787301 0.373480347916570 -0.178719570738301 0.120381054840717
69 1 1 -2.464354903423166 1.755575445789626 -0.337502536634154 0.928502337407209 -0.777817860743070 0.418195710952393
70 1 1 -2.481577189874002 1.065224887426922 0.344673676342408 0.693459350474472 -0.417445966483508 -0.016553004936110
71 1 1 -3.209802644853741 1.779094651798169 0.347737285785470 0.250772028209659 -0.377437076368707 0.095335078194555
72 1 1 -3.197523291739946 1.080693057246811 1.049462225820037 0.572896029217815 -0.103320142138087 0.058453309183151
73 1 1 -2.485021581787759 1.765804291121034 1.042056755550459 0.703965308861569 -0.701452328614468 -0.175790573443998
74 1 1 -2.465820376151585 1.065745538457880 1.742555122630885 0.892010065017402 -0.497035171529923 -0.316976495917977
75 1 1 -3.202594630604403 1.789134135068678 1.748824004584196 0.346586964082174 -0.273828333475265 -0.192041684621868
76 1 1 -3.172304726317493 1.075139441313449 2.435893446104317 1.260735995954717 -0.635268471361878 -0.488760672341844
77 1 1 -2.466568122325462 1.796480614000911 2.454131533001371 1.333519539655515 -0.548929959635358 -0.298037127207273
78 1 1 -2.463620079202251 1.096588438240431 3.157076260084180 1.346494294733818 -0.402450657204547 -0.210047533531048
79 1 1 -3.186199939117758 1.808197408948444 3.155077382928594 1.244094375988953 -0.073476204180616 -0.575020253607799
80 1 1 -3.190620471689940 2.506192356761109 -3.176686997376506 0.990945921803778 -0.133594993986695 -0.038502146439776
81 1 1 -2.477767629777455 3.203869267581414 -3.171777805023207 0.987821980336263 -0.379993774082655 0.323357959412696
82 1 1 -2.467249689324089 2.490858293085671 -2.444493484358309 1.341581144356741 -0.620226902326715 0.386680151966981
83 1 1 -3.175007408391985 3.182754951766565 -2.451014372757544 1.445680097511796 -1.017625221904631 0.436083455807386
84 1 1 -3.197087390400258 2.451548696432360 -1.726075549315867 0.874019164249663 -1.259716110444443 0.869362708917759
85 1 1 -2.480848487772410 3.147038035028090 -1.725859625459380 0.805192770811237 -1.264410708859570 0.976252220414597
86 1 1 -2.474776423464037 2.464625026545701 -1.031966263398072 0.934346717951652 -0.841478021320702 0.551004545105778
87 1 1 -3.192692491129665 3.165503025177069 -1.042751466959334 0.821873906628542 -1.022459208497127 0.457849100124055
88 1 1 -3.200445547527692 2.471455990627794 -0.337941239219833 0.605703806641554 -0.463591453749028 0.347144983171450
89 1 1 -2.509408733656379 3.177750144861119 -0.353622134803587 -0.276265337374013 -0.640611919769239 0.186298263432209
90 1 1 -2.506529633531299 2.483818534446938 0.349028304887749 0.030189708328718 -0.355857843841758 -0.113894336207967
91 1 1 -3.234548624500482 3.181704216037234 0.344540388368696 -0.318656962433617 -0.652100372995814 -0.099670231572213
92 1 1 -3.212886590063556 2.484986920034250 1.052203448067447 0.252601553586855 -0.171111644913389 -0.221219132792902
93 1 1 -2.518245806203709 3.191569954800864 1.032310475738724 -0.500343991660836 -0.609562058751121 -0.376313835950133
94 1 1 -2.495338749237612 2.489932756425489 1.759729841515779 0.054325055069652 -0.757697435877511 -0.314006101831642
95 1 1 -3.208663410742940 3.183007629282010 1.746319895554357 0.182632842945983 -0.901285943952199 -0.544912790363806
96 1 1 -3.194021578663530 2.513096649989011 2.448237699965116 0.902670702642665 -0.216066742451832 -0.679987828820184
97 1 1 -2.461034133886982 3.202637113493831 2.438744568272675 1.021150448314166 -0.939329215579468 -0.674723773134714
98 1 1 -2.458908613268871 2.496564862902165 3.164303062684112 1.229718924261385 -0.673688585565723 -0.541002311839317
99 1 1 -3.182460184256393 3.216536963370884 3.141250622080221 0.893179373112410 -0.220789160561078 -0.844895268855051
100 1 1 -1.783943897880975 -3.161700469366827 -3.173348385191441 0.306145810559647 -0.560329103976097 0.080402697769862
101 1 1 -1.048719624364199 -2.481477323858436 -3.151919738217199 0.565827474048580 -0.742546713216936 0.257265102795865
102 1 1 -1.051699993769170 -3.215156907577398 -2.452741534362082 0.676012131714626 -1.722186384459389 0.303396869589628
103 1 1 -1.771754327642894 -2.483342870828129 -2.438747873494454 0.646844140770259 -0.663266254915348 0.442246827268389
104 1 1 -1.766857431057712 -3.202568326995994 -1.746489878400995 0.292260083394599 -1.272886980912995 0.461947994729816
105 1 1 -1.070860317432128 -2.489914528332801 -1.730834816786668 -0.315088637111877 -0.975995925589972 1.038694770107510
106 1 1 -1.081830694529747 -3.186898380220680 -1.047278491458621 -0.363516103373861 -0.895003819262812 0.560828281326892
107 1 1 -1.824477058616236 -2.486532074640726 -1.046314442361019 -1.031000874364099 -0.970058324083690 0.499362811829599
108 1 1 -1.815473101251867 -3.174936309438066 -0.350078654280869 -0.817664333300824 -0.859696762737689 0.281951571665103
109 1 1 -1.078779480952116 -2.468244724636806 -0.343631407885118 -0.337394205081672 -0.577944387742108 0.225039414684700
110 1 1 -1.092000989173790 -3.180261618079111 0.361791735942745 -0.712439380278959 -0.799642240315216 0.179572620413980
111 1 1 -1.839133248600617 -2.469786611706014 0.338470202935136 -1.570002367507537 -0.736515885984411 -0.285873579262325
112 1 1 -1.781037482164954 -3.177187431925418 1.046960760190764 -0.420678162847996 -0.932701391165105 -0.387039803053095
113 1 1 -1.068842693752383 -2.493749272870411 1.037390845407425 -0.502793854502997 -1.067379940106624 -0.900654161085924
114 1 1 -1.066835323714648 -3.196986638830133 1.758316749253116 -0.243268652047926 -1.198593994033784 -0.303516237872892
115 1 1 -1.792767770927681 -2.468011150445689 1.741566658690352 -0.518991452383329 -0.805071784842508 -0.676410640064474
116 1 1 -1.790133409454772 -3.153092742453268 2.465702498069672 -0.055342994589909 -0.387957296839245 -0.212335726974588
117 1 1 -1.073524732557829 -2.445470364888627 2.457070368755874 0.129958128700805 -0.146803111879378 -0.447710564904327
118 1 1 -1.079681539057673 -3.188617709030147 3.164538794664275 -0.144112044233123 -0.875701582031984 -0.357422060131842
119 1 1 -1.794592201189469 -2.459163921582691 3.168700596739401 0.043351153338796 -0.544206155620604 -0.098258286280237
120 1 1 -1.767912326458407 -1.749353205119456 -3.155844217468156 0.721379226738891 0.231927294535159 0.309086347814229
121 1 1 -1.039714393540800 -1.036418041809975 -3.171674294159386 0.571713394618971 0.008419515266971 0.109367183386640
122 1 1 -1.061973962976104 -1.769856452155059 -2.467743853312063 0.033243171075312 -0.595447171843233 0.213479787238937
123 1 1 -1.756062160118829 -1.043147920367108 -2.443558515091183 0.496105643882164 -0.052120204624897 0.893552660071725
124 1 1 -1.795831270645354 -1.792781038109115 -1.733721448885725 -0.703167265319162 -1.091515055564668 1.040399507978565
125 1 1 -1.068674567194201 -1.048303172039931 -1.762037186005134 0.049575776516130 -0.386466337630869 -0.089322813705317
126 1 1 -1.088821321023783 -1.732732327325762 -1.059126285773641 -0.656618739242073 -0.087919193629613 -0.125431414227992
127 1 1 -1.811930361189513 -1.041114351663461 -1.060413689848531 -1.177247452403286 -0.125718715949817 -0.162069072447423
128 1 1 -1.811631232002164 -1.770567814303354 -0.367465717771028 -1.126404923870084 -0.866533239540613 -0.239654090155899
129 1 1 -1.070913609267716 -1.023750853785374 -0.370862660318739 -0.000012548466614 -0.114393893153041 -0.436240189255230
130 1 1 -1.073423707495182 -1.747628158294543 0.334522024493017 -0.284739767579077 -0.362837888280199 -0.434825062152604
131 1 1 -1.777606878073111 -1.041773732468743 0.330882414463966 0.097133397615263 -0.060438992465122 -0.799053825480162
132 1 1 -1.782746540252689 -1.753351409308781 1.032396732292105 -0.241288257615982 -0.509646313755512 -0.808286641955691
133 1 1 -1.051805147898262 -1.030191778918113 1.033812829672760 0.201622086448858 0.049275561479649 -1.036516133072492
134 1 1 -1.062011923570993 -1.728282712564181 1.747678580743163 0.149278532572292 -0.231082177092652 -0.596510696947922
135 1 1 -1.754344024066265 -1.040934922760784 1.762046477843418 0.628891508934575 -0.165331469069108 -0.143398606088993
136 1 1 -1.778680189317948 -1.749384479376833 2.471338427967833 0.259676234719522 -0.118713221690175 0.113662309848283
137 1 1 -1.041366038185608 -1.030143427428313 2.459843687088256 0.595172951250028 0.288090284261893 -0.231880397002844
138 1 1 -1.046083716221704 -1.755475376941454 3.189158512512266 0.640142103194431 -0.189188967360428 -0.003969710835634
139 1 1 -1.751368034707383 -1.026880386712551 3.178622858355358 0.891487332647154 0.496036890538186 0.072637128313440
140 1 1 -1.755127428623104 -0.311606370108686 -3.187634547243827 0.723841697352539 0.236655210561670 -0.254474271042251
141 1 1 -1.026753891847754 0.373351310983360 -3.179583113613880 1.075930699140185 -0.168356801120548 0.156984158847593
142 1 1 -1.047343837060313 -0.341258586436583 -2.484724945028486 0.488183505968052 -0.252742632104646 -0.357203510362625
143 1 1 -1.764130734123413 0.376277111155313 -2.460129984638051 0.508310651141810 -0.200699315894841 0.011159188541063
144 1 1 -1.787888275007713 -0.342243478601813 -1.764453272726604 -0.310364718533109 -0.274738142430965 -0.212954120805843
145 1 1 -1.054633964108215 0.355488810203441 -1.754638928382988 0.543639723303769 -0.741927289916523 0.232378421649420
146 1 1 -1.073365438203712 -0.331111510972516 -1.043240225497807 0.129366797429321 -0.245355540534337 0.176037100190063
147 1 1 -1.791622889696023 0.343457854570192 -1.067027536920048 -0.114067899798348 -0.921334093279020 -0.033452579711953
148 1 1 -1.786155807633506 -0.344862662668867 -0.372894475761866 -0.055346097884929 -0.489903713627744 -0.330505064529252
149 1 1 -1.036522938666802 0.357775001396299 -0.360086629695270 0.900782949974344 -0.756979115867359 0.076791052327557
150 1 1 -1.059154529113703 -0.332853740657771 0.330001469129434 0.169391740059021 0.013030879899345 -0.686688259493489
151 1 1 -1.760695832037984 0.372425461450111 0.336127991981237 0.786899345270204 -0.106680335573048 -0.162568346766570
152 1 1 -1.759981964453765 -0.327489646117983 1.038809140143178 0.361195788718218 0.156164217420351 -0.465212849951068
153 1 1 -1.025643483653556 0.355615486900435 1.048471343066603 0.759972940399297 -0.741985250402674 -0.161154144234122
154 1 1 -1.041609498577695 -0.329171985699349 1.763397639556722 0.354974680908062 -0.048983392565887 -0.072264560624185
155 1 1 -1.756971717390580 0.373364558266077 1.761775545859499 0.523835540225490 -0.359381061965728 0.062659434143455
156 1 1 -1.750575127245435 -0.315611690618178 2.468235528042324 0.871808541069020 0.450174173118046 0.120423877808981
157 1 1 -1.034714570728908 0.363939389202148 2.468613250679236 0.849193255073570 -0.528003336659115 -0.123281741019156
158 1 1 -1.023282568901214 -0.335386430199189 3.188493347620545 1.181481627745845 -0.145664775144391 0.171502809167292
159 1 1 -1.758433231061976 0.401980206241156 3.145665486275975 0.712472565713846 0.236613038366015 -0.621655496462826
160 1 1 -1.740109470727236 1.088444294746269 -3.173384305310109 1.231609440750341 -0.087883282030916 0.033679270207483
161 1 1 -1.036602106772945 1.750461631942935 -3.174588910387161 1.219009730881348 -1.587081036574018 0.038396061257712
162 1 1 -1.039392569336829 1.035072382941959 -2.469543250145715 1.102418339485872 -1.535307638405281 -0.067744060495317
163 1 1 -1.759214146719742 1.768022484951780 -2.435368768789681 1.076935205531211 -0.870161468889604 0.630245250085708
164 1 1 -1.761565072577710 1.040779642007081 -1.751907902841862 0.685487418268275 -1.188217432713553 0.177005334289756
165 1 1 -1.051347644082285 1.729398345466167 -1.723737306940884 1.066298317750451 -2.101818255663885 0.900648594500699
166 1 1 -1.055691106738748 1.031724329452378 -1.036723895097885 0.733872320252103 -1.719210766647594 0.438678296837603
167 1 1 -1.763256078032077 1.770331172715634 -1.037431779519334 0.855428807162163 -1.002519488617980 0.414197837954790
168 1 1 -1.739433184831808 1.070083059111419 -0.355382477012124 1.445769689341499 -0.756054891785784 0.103744790315138
169 1 1 -1.041017397704717 1.755460128414819 -0.337529618333018 1.018586173622407 -1.601845714413010 0.582889845819754
170 1 1 -1.044279650488651 1.045195290339755 0.346137330048246 0.796855581848929 -1.479415775029810 -0.260353199660054
171 1 1 -1.772848130716039 1.781285727599985 0.342825389849654 0.669168659745688 -0.520117803541703 -0.319718525423677
172 1 1 -1.755587171842105 1.074693154094170 1.035835849985303 0.512340216291269 -0.485942043240823 -0.616043310806312
173 1 1 -1.050152629558156 1.749621953077570 1.066041433045595 0.316935161639970 -1.918294692574573 0.126822754730054
174 1 1 -1.045167794452996 1.054715657492224 1.768600728007341 0.492542039136206 -1.498665279528287 -0.038057319574861
175 1 1 -1.772295379769040 1.786252035414553 1.751550493332457 0.476513324755913 -0.831538500967313 -0.305687792123547
176 1 1 -1.755819013639335 1.099095191025460 2.451596887100972 0.837237954932412 -0.244776165874944 -0.458202142900267
177 1 1 -1.030688386461153 1.774522884464358 2.487031860435793 1.161027873665818 -1.062100356328477 0.144089126951142
178 1 1 -1.018377199866757 1.065292143005973 3.189372624909375 1.521508453442461 -1.007194443238673 0.230782686009244
179 1 1 -1.736902071088622 1.796872233443880 3.200118710969826 1.333918631703197 -0.314846607997385 0.242568800394493
180 1 1 -1.762209387461569 2.472324355804446 -3.156812306687474 0.979474394474268 -1.246030693670254 0.384195290633725
181 1 1 -1.075461129119725 3.163967027310528 -3.161456140542672 0.367490995713473 -1.074718732518368 0.337619853866683
182 1 1 -1.048942370715967 2.434310178791071 -2.446319813092216 1.035637988938884 -1.939741141918937 0.498717630669460
183 1 1 -1.761430351313495 3.169698735002383 -2.429826598098261 0.944832783201389 -0.826776664741983 0.746344748814779
184 1 1 -1.767867313526004 2.433748935345293 -1.729896415397825 0.842284947322916 -1.635353195326573 0.548367750178377
185 1 1 -1.055791555869868 3.158912606554891 -1.737831860801843 0.568377591264444 -1.616148626685981 0.480618887517313
186 1 1 -1.049111410121633 2.455096151499500 -1.025266488443354 0.780118459713101 -1.723630445492513 0.813871048825793
187 1 1 -1.772820422811247 3.173661281543577 -1.041212230614062 0.369000073294770 -1.014523011698560 0.454663325696334
188 1 1 -1.781749033163442 2.466229155980577 -0.347526707106311 0.419178897925413 -1.101956380418343 0.057571295977170
189 1 1 -1.079050448225705 3.180534425895712 -0.330781642158130 -0.368729020039547 -1.259948976628498 0.767895464323693
190 1 1 -1.058127637337099 2.466752949653290 0.367873435016414 0.066842284441226 -1.476615170752951 0.381826928591542
191 1 1 -1.805596861909161 3.185402755183922 0.362803860122475 -0.458771902051093 -0.915473850836768 0.260921151150868
192 1 1 -1.780509600834564 2.490478849135589 1.068350382129879 0.034454508197559 -0.879695475245098 0.014721367185863
193 1 1 -1.068727861630290 3.159547695257078 1.049601666692148 -0.381880263077843 -1.630133649754517 -0.495064232482470
194 1 1 -1.024125280960900 2.457562078286542 1.786995482116566 1.150253312587967 -1.612806709001500 0.183337234722479
195 1 1 -1.756490675145289 3.175209186492694 1.766400359730877 0.339820518422713 -1.657172986919546 0.093282044617239
196 1 1 -1.739508297411774 2.486640730680945 2.488746506704123 1.299017865608706 -1.179666298536461 0.018593033976646
197 1 1 -1.062293735683845 3.191467592554384 2.474119498091430 0.279342721958790 -0.626534272031442 -0.080089980833038
198 1 1 -1.056417206946871 2.437113431160536 3.181509790052349 0.794822351252592 -1.946801862281343 0.055198249464001
199 1 1 -1.779041951893569 3.204645931584472 3.189816932263745 0.332179080612947 -0.388325022944425 0.267207612251397
200 1 1 -0.348559641453946 -3.176159061028445 -3.170289080378763 0.719120991604932 -1.008789264690488 0.167270139519317
201 1 1 0.397891796923625 -2.440673262117010 -3.200757250355059 1.806109492501446 -0.182491932459492 -0.295606594978850
202 1 1 0.396790048535327 -3.158440509351028 -2.460237905183858 1.536435398257775 -0.535020421571933 0.461070182239979
203 1 1 -0.341659149969859 -2.441178118476373 -2.451550717152278 0.622143186070531 0.128317768659329 0.611637227880797
204 1 1 -0.348270473952651 -3.176865938305443 -1.748323462379436 0.351257404446370 -0.549319219735415 0.604667100213849
205 1 1 0.359009901156894 -2.475220609973757 -1.762499107959414 0.917716433896330 -0.703081472355617 0.158877780855495
206 1 1 0.371161154566393 -3.181802947838325 -1.017279150734029 0.868007016307182 -0.839520478227384 1.284552043311693
207 1 1 -0.379154334574648 -2.461494645105739 -1.032397851577352 -0.435729896036746 -0.524544183648166 0.981128577708553
208 1 1 -0.371644818122493 -3.199333408753908 -0.328151643520355 -0.417570885419519 -1.163051782193923 0.818787965209209
209 1 1 0.361784683434265 -2.477851906359783 -0.358982371323144 0.221462297399570 -0.637831120027885 0.002548358508617
210 1 1 0.368587093059253 -3.203781416732893 0.350786281627463 0.297675263595016 -0.997553261038094 -0.182459766315766
211 1 1 -0.352670643914354 -2.474431979014352 0.341270984557899 -0.322764386631785 -0.691284709155856 -0.412943940545338
212 1 1 -0.332827160632825 -3.196396298273901 1.052421021965974 0.133283320844685 -0.837799576573066 -0.187099950857714
213 1 1 0.364994225692962 -2.471269944992844 1.016011670682034 0.361376720996546 -0.787727687858994 -1.003879204172554
214 1 1 0.339548422912802 -3.164460863358524 1.751469213479455 0.077667286361933 -0.638696179008128 -0.206462986873787
215 1 1 -0.361257024779983 -2.443462655157242 1.737907561674982 -0.342524442736040 -0.182547508083896 -0.676283217600932
216 1 1 -0.373445992393687 -3.169197730809600 2.465184925878964 -0.162676908869980 -0.355478424998973 0.069980477432942
217 1 1 0.344823275322348 -2.462214546922167 2.461271706337794 0.448806127865295 -0.714449527459629 -0.301863947276879
218 1 1 0.365703873242070 -3.165389164631145 3.172618912371675 0.862033385305376 -0.813084007276245 -0.459468616707147
219 1 1 -0.349648124481722 -2.469016382269394 3.195161721207873 0.449744358176977 -0.842938414029336 0.223135002868244
220 1 1 -0.333181055065720 -1.731162688506927 -3.182593708610364 0.792580252094834 0.355334963330825 -0.017369024629048
221 1 1 0.395678924885174 -1.050550918091557 -3.201615881367589 1.459907606686365 -0.355330621652312 -0.596153567619418
222 1 1 0.375299051990374 -1.767372848043584 -2.493478939544685 1.016614623122143 -0.811474292166525 -0.367717016178387
223 1 1 -0.341755657340885 -1.053499221228182 -2.481443804013342 0.290089252989705 -0.296769903143013 -0.318502674734894
224 1 1 -0.362327850420447 -1.762674019408079 -1.750038492635773 -0.010206172343089 -0.356450460692357 -0.175770238599375
225 1 1 0.387781829430118 -1.083530553518004 -1.780031380889985 1.211169631558650 -1.312831767108553 -0.443717739288937
226 1 1 0.375448632998882 -1.771217787278493 -1.058702166225327 0.562267226856932 -0.855627638080981 0.308532443764212
227 1 1 -0.349841987773831 -1.048382642219906 -1.050909499124879 0.068148287361343 -0.557101679255913 -0.066813346480442
228 1 1 -0.352992853970399 -1.747799286798346 -0.358239976176236 -0.123234685815691 -0.253056454448806 -0.016209189492983
229 1 1 0.370344344620178 -1.093726389564933 -0.389319393132507 0.387002791171680 -1.492074746285105 -0.734147038249287
230 1 1 0.354792936096862 -1.775561342674075 0.299187131369293 0.100837173233924 -0.893345414705465 -1.212288436322715
231 1 1 -0.356514350218191 -1.078848076591879 0.329637270485283 -0.293779787373932 -1.068896554931883 -0.795141102372520
232 1 1 -0.353296799194355 -1.750750695737968 1.013486381531427 -0.307985232425737 -0.564138475332447 -1.327046758406968
233 1 1 0.379649734602480 -1.068796416674774 1.029933941353788 0.917423079267032 -0.948230967963951 -1.001383842046589
234 1 1 0.337970867992163 -1.757179936797626 1.739322290260532 0.095258866541951 -0.676896205642759 -0.721811315617464
235 1 1 -0.327482419285394 -1.061581254222313 1.763397349352014 0.683093853594872 -0.481645205817169 -0.162394614458136
236 1 1 -0.360960634658498 -1.762185758897909 2.491447108835937 -0.070145144224828 -0.571365590940784 0.356911607166970
237 1 1 0.403102363757406 -1.054699576018280 2.464271952571494 1.914861027724513 -0.609654079506790 -0.265896507641009
238 1 1 0.391096449477424 -1.736737411946210 3.142214076955564 1.874158250833512 -0.094495818107069 -0.660873406189530
239 1 1 -0.315395299220195 -1.049742380306130 3.196887664042910 1.105910632668699 -0.272961111801423 0.214620356626557
240 1 1 -0.305246485989290 -0.333855842301656 -3.202227444642382 1.566378628135363 -0.254001220089834 -0.460339371897502
241 1 1 0.407597411097523 0.330770969066510 -3.190627656561941 1.893229227856893 -1.294117773669094 -0.375327488419170
242 1 1 0.376388702734048 -0.373934013872319 -2.489933671811125 1.322492189915867 -1.244849502955996 -0.462399304709725
243 1 1 -0.326817212764156 0.333508286234856 -2.495426289618067 1.000345980651565 -1.303464362161910 -0.671615185443663
244 1 1 -0.351488365190088 -0.366126368834928 -1.761350655213094 0.347082486955999 -1.053611051126721 0.027142446441135
245 1 1 0.370769961118962 0.307482580029782 -1.771282120442277 0.871688664363136 -2.165710871900385 -0.103183134080657
246 1 1 0.367193448892113 -0.388479594911211 -1.083064326707657 0.702489867785752 -1.652163818862627 -0.183738416024551
247 1 1 -0.348448231115127 0.322434184056094 -1.059461246561214 0.436194820853564 -1.913467415415598 0.130038871871748
248 1 1 -0.331425208583804 -0.374985275906733 -0.377842732885145 0.583470822232198 -1.267235325620730 -0.479081057443806