ITEM: TIMESTEP
30
ITEM: NUMBER OF ATOMS
500
ITEM: BOX BOUNDS pp pp pp
-3.535000000000000 3.535000000000000
-3.535000000000000 3.535000000000000
-3.535000000000000 3.535000000000000
ITEM: ATOMS id mol type x y z vx vy vz
0 1 1 -3.180048360523775 -3.153156293837748 -3.195648973231914 1.038793942505325 -0.142676222992768 0.014033421817475
1 1 1 -2.504530014690209 -2.453443760256516 -3.193240901711865 0.393742346136992 -0.330943069255749 -0.321604078299431
2 1 1 -2.467246812072152 -3.200447336820004 -2.450924310174357 0.820794439355573 -0.573961548529726 0.428814434311216
3 1 1 -3.177162938604617 -2.494086271496576 -2.454501203051922 1.066590813618155 -0.255623969730507 0.135567950299661
4 1 1 -3.187652233813896 -3.220386178242071 -1.749247333902296 1.017328432012418 -0.386668206141350 0.520652543085455
5 1 1 -2.522551963502338 -2.489872066301949 -1.729827426993998 0.187502760281990 -0.249646082930298 0.590408560297949
6 1 1 -2.507219044653004 -3.167287128051479 -1.026638466504497 0.230909666112137 0.440605487573323 0.947286963943022
7 1 1 -3.250570048586257 -2.485018092802526 -1.028465821516751 0.004752730709202 -0.030193799577648 0.546387706015748
8 1 1 -3.248560986010472 -3.160716468828651 -0.354905793845529 0.175898041519151 0.478249942898290 0.386174423135169
9 1 1 -2.572293101592221 -2.470536397573544 -0.361056010682060 -0.455888234748243 -0.246157935840274 0.273332902138942
10 1 1 -2.553021668681237 -3.157057436370864 0.319801970322742 -0.401454856535028 -0.209660134145262 0.075195718682351
11 1 1 -3.275005342092244 -2.454016818677572 0.306994653214780 -0.141523992891283 0.139396615024066 -0.579929483850386
12 1 1 -3.250676955386180 -3.168883136542282 1.013772879568740 0.023000334041251 -0.031342761257277 -0.154517991688454
13 1 1 -2.574968254601420 -2.456559139250817 0.987682744693264 -0.445373375692838 -0.464108247634567 -0.606150109732011
14 1 1 -2.503159822184072 -3.165672844029917 1.692479794257887 0.651182745303029 -0.519381352281188 -0.298419647838948
15 1 1 -3.243491554343779 -2.461280594171122 1.701080642457136 0.345246684341506 -0.251342982704965 -0.619122857345974
16 1 1 -3.185827322274326 -3.147503694658419 2.410347426936588 1.153786148240599 -0.081258018902542 -0.339952671519671
17 1 1 -2.507394230908699 -2.435287281461773 2.439791655513555 0.674575450494368 -0.115879029502471 -0.117341407932943
18 1 1 -2.490990843472689 -3.156889543830191 3.158492887097004 0.820929933696978 -0.213509851696330 0.076403970521479
19 1 1 -3.200402065574909 -2.442276910896721 3.157027495314110 0.710237238606845 0.105494262872375 -0.179380640474263
20 1 1 -3.177491898547973 -1.725274969317844 -3.173795004090906 1.038356145065273 0.399999986825874 -0.060653283543396
21 1 1 -2.502981696678424 -1.038109994491042 -3.165828151113791 0.726746394060386 0.243722073615924 0.400658410448917
22 1 1 -2.506820368496615 -1.769762505488898 -2.461554026166641 1.063586083089959 -0.301866559382133 0.317904283116426
23 1 1 -3.225681155204811 -1.050450973634425 -2.443559127367084 0.647952474316169 0.126725682518304 0.803884588755225
24 1 1 -3.227921702282418 -1.780206290200180 -1.719265740803683 0.405417236065744 -0.362510239902936 0.861589493409898
25 1 1 -2.525204911863763 -1.065805997806712 -1.738864189298605 0.100431038770782 -0.823841913097912 0.700544480964079
26 1 1 -2.584824533795342 -1.779544799031592 -1.034147629118906 -0.104012118917237 -0.354152579989170 0.710986554321648
27 1 1 -3.285729796826938 -1.034609838841134 -1.056798684108572 -0.235976391003311 0.017667325630629 -0.119838055989438
28 1 1 -3.278996598056322 -1.746253666227479 -0.367418788003492 -0.220093076626443 0.155040911438974 -0.155223736840674
29 1 1 -2.559295283061806 -1.041107165574186 -0.394588854637600 -0.161043353318955 -0.425915315988860 -0.286692987465646
30 1 1 -2.584313611789631 -1.758335791399217 0.292194919175869 -0.346474570310952 -0.350091076921269 -0.429563393934050
31 1 1 -3.280939065021822 -1.054215025301982 0.289207599441696 -0.217741286209839 -0.415362853796981 -0.892709105492891
32 1 1 -3.275748036885691 -1.742829953183219 0.984995538490929 -0.255353374011288 -0.116898109004895 -0.864573840431054
33 1 1 -2.517061482573467 -1.011815070195493 1.033042652154945 0.333545990809361 0.127338911293780 0.171388085472627
34 1 1 -2.530358763296795 -1.755012160336824 1.718122887872746 -0.000207457294687 -0.493267122317403 -0.405562735723064
35 1 1 -3.212085423544756 -1.019427904306668 1.734367400307578 0.123155752374311 0.302614373152949 0.044504826379047
36 1 1 -3.199209749909432 -1.726393535862002 2.469908670080247 0.747865378503690 0.215025837981748 0.051661119340304
37 1 1 -2.484412131597892 -1.023713242492341 2.489118562248676 0.922794488845583 -0.023867085806144 0.392705236724716
38 1 1 -2.493465608176989 -1.744245339792320 3.163226278219069 0.942988856089276 -0.358750042055426 -0.246873390489741
39 1 1 -3.191072949559495 -1.030078711721019 3.190986484678880 0.533181967092067 0.087557522799099 0.418284471919732
40 1 1 -3.196196818434347 -0.297222851362282 -3.182915124222474 1.042711504349591 0.803549317216546 0.194335529517178
41 1 1 -2.462078400769092 0.391795995641255 -3.218287720068798 1.644274917466325 -0.222062775930545 0.054365198342965
42 1 1 -2.480345289504431 -0.294709454613463 -2.456509373533881 0.982534984076005 0.061105294346187 0.497553375029967
43 1 1 -3.161262314744152 0.393890020585016 -2.473690610670433 2.172841571320287 -0.238889992916883 0.320434238294957
44 1 1 -3.242030810065585 -0.339628388788286 -1.730947050135456 0.254554025979439 -0.688678960643340 0.549744969239471
45 1 1 -2.520305071194550 0.355612832582530 -1.749416262564326 0.675005338390038 -0.706669497274186 0.496809554241064
46 1 1 -2.530542793013175 -0.309527242761875 -1.072842870047110 0.468035616191989 0.096896802692793 -0.164716760354732
47 1 1 -3.236194819041050 0.372449718021815 -1.047687014565918 0.712678505488731 -0.343930482378978 0.314542712465385
48 1 1 -3.248274035808264 -0.319580042717181 -0.360164811820730 -0.174302420626651 0.020174018491949 0.269105919565959
49 1 1 -2.507372129893010 0.358629742654208 -0.363200033847011 0.985939008952483 -0.155975103375764 0.765997737066691
50 1 1 -2.514235581068882 -0.309681429383004 0.324492709477784 0.808657229355074 0.197576249058607 0.113592265537273
51 1 1 -3.200164552197126 0.410685244524925 0.344257475936579 1.348462931841951 0.497070761434149 0.510950054822979
52 1 1 -3.218999205173025 -0.291708380386207 1.062457312766650 0.513976362446070 0.864957995626756 0.672852344744986
53 1 1 -2.477550806333197 0.381639125688910 1.045255488867903 1.326694548484475 0.034361058883840 0.660944881868822
54 1 1 -2.471229787034592 -0.328938102312223 1.792826486255080 1.297995039844033 -0.184734887653220 0.886169572855362
55 1 1 -3.184402848702643 0.372492856672651 1.779394519102929 1.128355034876331 -0.109952843328224 0.820163884850407
56 1 1 -3.191452287683964 -0.303565266828658 2.521285264896691 0.768526580562488 0.327905852918579 1.001981354320112
57 1 1 -2.442482460172637 0.374774556217871 2.432392569252243 1.635796608086203 0.088323085732088 -0.173212042525138
58 1 1 -2.464831286842997 -0.329245805596193 3.141028235856565 1.308224736573034 0.363506950571001 -0.499696359090884
59 1 1 -3.171257849817823 0.392504347709434 3.134485629741634 1.379414023663251 0.365185624106159 -0.053562249421891
60 1 1 -3.167963076316346 1.103468788766768 -3.215742241461208 1.917390888276956 -0.299003164689388 0.075685228301625
61 1 1 -2.466312592303657 1.814793921492839 -3.163836395595410 1.495072445179028 -0.196160353665637 0.621468084002579
62 1 1 -2.473336827868200 1.078262248931838 -2.459461641048780 1.551239955241393 -0.892408785899316 0.437867938472756
63 1 1 -3.179624246770238 1.825693332437060 -2.442696590804630 1.818693422287573 0.186959006507507 1.209566479807298
64 1 1 -3.207536202353604 1.032548183337176 -1.753793899428237 1.318280465499958 -1.351404045138001 0.873449501012725
65 1 1 -2.471007081999604 1.766158789216643 -1.716872986017259 1.440139686470849 -0.467743148524881 1.460579632714594
66 1 1 -2.492362894137961 1.072691615891177 -1.035254253585714 1.353030376015307 -0.197217959922702 1.399828318627445
67 1 1 -3.192321516064391 1.770843664805916 -1.029575939090937 1.541996492590027 -0.264785601029461 1.340102061707190
68 1 1 -3.206889971628480 1.085181218840305 -0.351443188399132 1.149730631280292 0.137612587886114 1.195381171116624
69 1 1 -2.453984526546397 1.762425051437700 -0.327143477864050 1.906295630595142 0.065309423786714 1.095222303084198
70 1 1 -2.478274038875909 1.072645135289902 0.347581764218392 1.693513481493283 -0.003599562830056 0.909998179483665
71 1 1 -3.212170531090707 1.786957664191297 0.351569313264360 1.216817260097750 0.092527725971177 0.879640756643381
72 1 1 -3.194788049691953 1.090931881087923 1.052899046887930 1.442259535443666 0.116269755166756 0.929447742417180
73 1 1 -2.484809559142742 1.764731719311547 1.041909560397793 0.931395215162599 -0.405300714625162 0.624918595268249
74 1 1 -2.460660734248416 1.067420068170680 1.733972287006922 1.491258213715990 -0.323177805624868 0.130930351447219
75 1 1 -3.208237380273816 1.795483699562743 1.749900713561690 0.741663304734990 -0.260642402459019 0.808050579985118
76 1 1 -3.164226507357371 1.076571036360327 2.425350916425104 1.337355289480860 -0.238265780978267 0.204875267122910
77 1 1 -2.449995221629720 1.802025254116190 2.450184801742785 1.758738728948842 -0.119159236172015 0.559384802032568
78 1 1 -2.447370017923850 1.101560237412567 3.146494708004560 2.027021000103026 -0.145365942566957 0.149825975407422
79 1 1 -3.171919252631765 1.820919559935791 3.147032992590372 1.731504081772685 0.006056581871307 0.278928511201639
80 1 1 -3.180840925955144 2.520076985704056 -3.175572073390623 1.364342743099134 0.100077830025862 0.815190773538820
81 1 1 -2.469977402309719 3.210639058955921 -3.166732633760014 1.400432316027768 -0.162897446081474 0.975482511112266
82 1 1 -2.453389860235461 2.493655858359964 -2.431538452109892 1.721945722004028 -0.309567991150351 1.569589695619359
83 1 1 -3.161808411573455 3.178442339341888 -2.443351178258495 1.500239741540220 -0.688275071032191 1.072449461644587
84 1 1 -3.193400655336462 2.442966845661961 -1.708496548664143 0.878318467437441 -0.785339350909951 1.686335106868357
85 1 1 -2.480520542511653 3.140337950641951 -1.705512250018084 0.776572947702454 -0.548487656143484 1.565675133610815
86 1 1 -2.471503436618866 2.468874328269385 -1.017642447097188 1.176087934787266 -0.018296032234677 1.302815889388461
87 1 1 -3.187524446304530 3.166301456355783 -1.033194241730597 1.258204361098756 -0.041782832968401 0.935359165118296
88 1 1 -3.198613655865595 2.483561259259027 -0.327206156222231 1.217936989892297 0.488656571423600 1.242302365416444
89 1 1 -2.525807711473284 3.187394701311645 -0.343318414058799 0.232919630004692 0.339364213732688 1.145103858843638
90 1 1 -2.517708052402878 2.493269811442043 0.354794793529844 0.524684065922198 0.116041718736374 1.178000199547634
91 1 1 -3.248513723574586 3.188163807507855 0.344613402922595 0.311603875643701 0.137410741103648 0.586712398637780
92 1 1 -3.218773567991050 2.495954456537613 1.053253763778090 0.666062725842451 0.068675620485459 0.911483931088071
93 1 1 -2.543072157698671 3.195799823448371 1.029660088264235 -0.290764109908348 -0.334405962081347 0.526475882051795
94 1 1 -2.508479533252765 2.492227329959991 1.756859390634298 0.269000498906529 -0.338758484104852 0.787274128665221
95 1 1 -3.220066114896366 3.184234669081312 1.741386989912369 0.381320820470673 -0.298552777658096 0.354903238388119
96 1 1 -3.186272337651939 2.523840498557083 2.442356695527557 1.256821200918731 0.009380311779883 0.487146523430347
97 1 1 -2.449579085751939 3.202425874521838 2.428289458227223 1.609075488309385 -0.481264402653849 0.068094014288529
98 1 1 -2.444453284200153 2.499597376164862 3.153775560657197 1.780887203403120 -0.226943031042397 0.173840982455731
99 1 1 -3.175005798604889 3.228274263733634 3.130318537050163 1.422038129260764 0.083515976023924 0.079450622514160
100 1 1 -1.790071213095561 -3.162029803652201 -3.176833481557277 0.769705827290645 -0.523223573453712 0.409287179120756
101 1 1 -1.057948756882481 -2.483573536591741 -3.156308409947273 0.693183109224124 -0.484132478080242 0.159793086456349
102 1 1 -1.057564982159862 -3.230845766553405 -2.445397443941483 0.744305831051165 -0.965954283386464 1.114131108414114
103 1 1 -1.776619526542319 -2.485763751681294 -2.434489898394343 0.807323999842824 -0.539210348604066 0.684746728622175
104 1 1 -1.780388129592965 -3.213697076715490 -1.740317524528805 0.193542501348903 -0.721846025795978 0.913209890761405
105 1 1 -1.090087523235406 -2.492217126837168 -1.714295068562499 0.261587494667435 -0.533573245044777 1.472497229422709
106 1 1 -1.100318262853226 -3.184906358788100 -1.033626146149528 0.328182569647765 -0.273516412900553 1.528313576813733
107 1 1 -1.853660343532157 -2.486379970057447 -1.035705011800736 -0.241367002898689 -0.370746591691082 1.169836834228196
108 1 1 -1.841760541163806 -3.175202217310993 -0.346955515617538 -0.030777511029606 -0.457179987984409 0.793163988154225
109 1 1 -1.096368219751457 -2.459162632811572 -0.341902713275867 0.583951275174902 0.074195655604497 0.790151304710880
110 1 1 -1.117803301127298 -3.176855564634169 0.363652084690983 -0.105574720209139 -0.245431688570279 0.867066864748392
111 1 1 -1.875608996171182 -2.468759440979770 0.331239031787548 -0.272217861448007 -0.280240426102814 0.199960127935317
112 1 1 -1.796944297152179 -3.180587623132144 1.038883802035476 0.361257921731906 -0.607303853939608 0.217322597216334
113 1 1 -1.081689343160399 -2.496242577056706 1.024744005212146 0.963877570441685 -0.459671148855504 0.228965984690863
114 1 1 -1.075269181712670 -3.202039833695644 1.755187885824858 1.183677810105127 -0.547766804623608 0.497406387206603
115 1 1 -1.805028470588088 -2.465139597891192 1.729854222704472 0.958425222643863 -0.239625544730713 0.012263957470334
116 1 1 -1.798599267387925 -3.144622321980704 2.463203246389902 0.850195216848872 -0.034026303399536 0.465348094720112
117 1 1 -1.076671144693277 -2.440635063710225 2.445450738275935 1.496527533148142 -0.499292985634134 0.056100945915864
118 1 1 -1.092839510862331 -3.197334770325604 3.157428857242985 0.668397983491352 -1.173370947433592 0.332028365205559
119 1 1 -1.805784938385237 -2.460527704853851 3.162960510867816 0.670898354548500 -0.606708577101074 0.218932339241074
120 1 1 -1.772756446609321 -1.731920973474773 -3.158533449412526 0.918794340705261 0.476214124405909 0.109743669478451
121 1 1 -1.043664094213378 -1.025668053144299 -3.180498660884757 0.979314108609445 0.085985448961565 -0.029752045177286
122 1 1 -1.078695298044850 -1.766913327100068 -2.468161283830873 0.248335536342713 -0.134043354412881 0.761569782428247
123 1 1 -1.758435545459023 -1.035526214903629 -2.436456781994107 1.145150987147700 -0.209012578421078 0.890906901626931
124 1 1 -1.821509733641506 -1.797328543242321 -1.719775539599619 -0.271264367547165 -0.561243218229239 1.214755377236266
125 1 1 -1.076864448887310 -1.042702945100618 -1.775132453443475 0.757539200530938 -0.283419400015715 -0.239971922832411
126 1 1 -1.109882800776279 -1.721496783150279 -1.069313256648347 0.559621109659703 -0.567644343631847 0.150602335707351
127 1 1 -1.838167536535583 -1.032852764932747 -1.071676144298296 0.210633112367418 -0.103075945195374 -0.037695432032758
128 1 1 -1.839491384595298 -1.769093621040159 -0.377095046265094 0.236145928071401 -0.316530402926234 0.076007072220345
129 1 1 -1.083528449813736 -1.007643453038938 -0.384325981165402 0.683043964307449 0.475362771218532 -0.180450710646133
130 1 1 -1.089366789101350 -1.738779315777766 0.323525952089252 0.648230678291450 -0.009092177962424 -0.049108718558648
131 1 1 -1.787165327029760 -1.028820624889768 0.318626588206388 0.869434979384699 0.170051567115701 -0.012391111802957
132 1 1 -1.791306617425834 -1.746637319326167 1.018970601652807 0.970929504248255 -0.156522595142138 -0.076459100586993
133 1 1 -1.056791264134099 -1.010835569941667 1.020325649957321 1.205514136193538 0.437286209401640 -0.031294219284596
134 1 1 -1.067343864257910 -1.718410244701343 1.737958651236842 1.273004482127794 -0.239268203884131 0.035772318307212
135 1 1 -1.756856094860243 -1.027493627543830 1.759664601097889 1.266513978380631 0.054411206181839 0.483242319441147
136 1 1 -1.781538235955902 -1.740902674815054 2.471553264934277 1.379603875647731 -0.154281519570828 0.470982017353534
137 1 1 -1.042559921306054 -1.018275248425529 2.446028072623542 1.478377481916293 -0.053538179885499 -0.470076991062199
138 1 1 -1.051568732679681 -1.751564813488276 3.179167942781931 1.015074952665916 -0.459265196926676 -0.447664636642631
139 1 1 -1.748994009291051 -1.009275008619739 3.169406544558067 1.497673583817729 0.302264322108024 -0.289971803404300
140 1 1 -1.754816171500291 -0.299091914469161 -3.202966741866358 1.187464981118067 0.066612343958426 -0.031233348899725
141 1 1 -1.019186249157226 0.379006049487980 -3.182295998407901 1.444496589928374 -0.495933630203766 0.330903095678812
142 1 1 -1.046988889140376 -0.333091880905272 -2.501031515920414 1.092625722475170 -0.241846595809503 -0.225631059583500
143 1 1 -1.760882982711137 0.376146652832672 -2.467271538720385 1.328744283474123 -0.766516284899120 0.223803914331088
144 1 1 -1.800972711690589 -0.341558991126379 -1.778585485670338 0.363424036552746 -0.601942687488390 -0.149308949129233
145 1 1 -1.055302302248306 0.358343070083347 -1.752807875687193 1.328127027018913 -0.335737743942077 0.665279563536491
146 1 1 -1.082605235446510 -0.317043499820868 -1.044893672378000 1.007997218978181 0.331327515706801 0.436061998063653
147 1 1 -1.804632210275511 0.341403514686420 -1.064367527177842 0.931738179667118 -0.559661579182907 0.866838422824698
148 1 1 -1.802363561697987 -0.335818986013271 -0.382223627828149 0.560017342363535 -0.095545520090910 0.040451550342648
149 1 1 -1.033927093212953 0.364535961328914 -0.352187983172566 1.480643168350401 0.079015191488484 0.964399587102943
150 1 1 -1.066316788616251 -0.312376198651470 0.322765876584587 1.257962110906051 0.614211182802621 0.337399006296835
151 1 1 -1.758844774180189 0.386373824274810 0.338871613407330 1.528306542195807 0.344832575095885 0.844061513120661
152 1 1 -1.767447954487309 -0.309042132491005 1.033952793522948 0.961455428589880 0.362459484563240 0.503785109962668
153 1 1 -1.019404792197386 0.355863884365610 1.049226184658077 1.838955275233630 -0.630863977133928 0.837409896766438
154 1 1 -1.042709290023249 -0.317829845147380 1.760266340808061 1.657368730328983 -0.071853531785363 0.519526267821860
155 1 1 -1.757006254707588 0.378262043817078 1.761834130333650 1.568819089705088 -0.146364846283839 0.643598077574673
156 1 1 -1.748674901999982 -0.301427349620704 2.461524440916754 1.602528697225556 0.229706359544686 0.093270829067904
157 1 1 -1.027661882899295 0.364732682584237 2.456426382002827 1.788098118036739 -0.394614183595973 -0.211371016569372
158 1 1 -1.015310323241851 -0.327709384601500 3.180286631368558 1.701894935254966 -0.150125422982726 0.046587134527248
159 1 1 -1.753478800551416 0.413299563194137 3.125441872491027 1.588135697828905 0.020227367669655 -0.261501707128643
160 1 1 -1.723811076762321 1.093619257234594 -3.180727212528525 2.099678929362341 -0.487468210373230 0.146677176601737
161 1 1 -1.024165130105245 1.734795947866746 -3.177724703193794 1.698457601959614 -1.176892606749827 0.564539973190949
162 1 1 -1.030592912978766 1.021012727058138 -2.473559675402137 1.496307779675978 -0.949904553472359 0.515320320908656
163 1 1 -1.747126600411689 1.762507891109207 -2.421308922339018 1.742198015161648 -0.923634609139387 1.350880451680188
164 1 1 -1.755400359405159 1.033864829502742 -1.747477289743322 1.674180260824983 -0.814369117238403 0.907414222676860
165 1 1 -1.047514878271415 1.712834868670379 -1.700328610188565 1.388154177026968 -1.229583096228550 2.094130099074691
166 1 1 -1.056796251936599 1.022941226915342 -1.020456707829373 1.267062587654209 -0.649342486081171 1.641127177917291
167 1 1 -1.761414496533962 1.771951291093702 -1.021441715258530 1.285835000609813 -0.228996864193310 1.594441503534387
168 1 1 -1.724742235866617 1.077982184621274 -0.350092106696820 2.097767175713645 0.152159083157225 0.907209402466704
169 1 1 -1.032178375552434 1.746588626201192 -0.320223086583450 1.836286490503326 -0.608318446795174 1.522310344005215
170 1 1 -1.035833966334305 1.033547879778367 0.347882862193034 1.924711732128028 -1.010572510811308 0.962419650647181
171 1 1 -1.771627700494958 1.787646903308801 0.346266274851266 1.247811043693907 0.068836167105438 1.015513736207177
172 1 1 -1.752972123633110 1.079367922227091 1.029367799001345 1.547636091024229 -0.220062865323818 0.534492172451750
173 1 1 -1.052400824929954 1.729439912709970 1.071127972767751 1.229094891560245 -1.621460671777549 1.135367008844678
174 1 1 -1.041952169356842 1.034467728558455 1.765068362354530 1.643501481731335 -1.632506090612825 0.530834685891228
175 1 1 -1.774100971702178 1.784775430406451 1.751170165771626 1.103239308408477 -0.597528432242867 0.972116144907274
176 1 1 -1.746276306565126 1.102351352166732 2.437361864066808 1.770932898516186 -0.407081753976814 -0.097037415802420
177 1 1 -1.017383125224857 1.768953361071145 2.486584748401372 2.084338316304280 -0.892094463768204 0.645259197617350
178 1 1 -0.999660730971432 1.057167145571205 3.187819860639774 2.184163452002350 -1.052936665189975 0.456586502031178
179 1 1 -1.719344657614476 1.798916917968419 3.202812504436119 2.097219940890887 -0.505455557337512 0.718814875651180
180 1 1 -1.753244384019456 2.463141703132641 -3.146534623053068 1.497230678122266 -1.027410281497105 1.376975130259364
181 1 1 -1.082439087840132 3.158161707585481 -3.156365676187754 0.643854255961518 -0.813350897203095 1.090432699723141
182 1 1 -1.048144404958286 2.418420223023577 -2.431737462481399 0.976199353383673 -1.186691210568574 1.573880384426032
183 1 1 -1.763345920528747 3.155799831660411 -2.415647853482477 0.746352570936709 -1.151811778586060 1.310296089374570
184 1 1 -1.761938043067971 2.422583092774848 -1.711747336381929 1.367691081327099 -0.901568557329385 1.727303229998986
185 1 1 -1.062740390590137 3.144595293317628 -1.723139733260664 0.631500487027930 -0.930421759309045 1.695990998428387
186 1 1 -1.048676041458412 2.443198361871734 -1.003349260876242 1.265186364053801 -0.722022548801845 1.906851710818927
187 1 1 -1.782423527057197 3.171945342318338 -1.025901030189228 0.512503495530914 -0.250090174434431 1.385869561011069
188 1 1 -1.785898095940223 2.464479565955684 -0.335313094045723 0.859802824054931 -0.160130351907880 1.457357447601934
189 1 1 -1.096508627080640 3.177667701209326 -0.316051888155172 0.343230915822051 -0.715079369856233 1.611789743832059
190 1 1 -1.066640368412461 2.458333549850251 0.379113310292120 0.857401514944634 -1.120159843785174 1.722414207680081
191 1 1 -1.827323936043236 3.183813235919920 0.368361100046556 -0.004640944547048 -0.600091487384675 1.091058565445518
192 1 1 -1.790943017380888 2.487198487057848 1.070121532846171 0.486308276060020 -0.805378303939098 1.057808326660604
193 1 1 -1.086164050725055 3.144998102142540 1.043438583759702 0.387031939979015 -1.271474166423169 0.550710951037879
194 1 1 -1.010579390096053 2.442674908654771 1.787088584225634 1.983196619408796 -1.327269139561291 0.750489376702803
195 1 1 -1.756756460739411 3.159737197003996 1.767289836357638 1.483933829693645 -1.106545692981212 0.459241679400740
196 1 1 -1.721617863729467 2.478656587006899 2.489584364100655 2.148654002071444 -0.839208237380057 0.752906310839978
197 1 1 -1.063530446188216 3.195519798781550 2.476118210831777 1.225906132098935 -0.194954900576878 0.789808095637991
198 1 1 -1.048846087630769 2.419465375522840 3.184594154353293 1.604418225757264 -1.313294035739098 0.805000553651428
199 1 1 -1.779657327800778 3.208746499271212 3.196546225782922 1.117951802656780 -0.409714127432658 1.057029380268431
200 1 1 -0.352572193055985 -3.179449309020287 -3.166897182748167 0.732162686548389 -0.517014787325110 0.885096618631607
201 1 1 0.407634287088005 -2.425468785407979 -3.216804943000299 1.076109675785258 0.681095906836155 -0.493564021801356
202 1 1 0.403295864143044 -3.146272593851343 -2.459155212216980 1.267645539485476 0.396749866779788 0.565047263605725
203 1 1 -0.351028974384375 -2.424824349000873 -2.449696848871917 0.442231083210533 0.393557522544273 0.255161665501310
204 1 1 -0.354509404576431 -3.169770982210018 -1.737690561086502 0.805231610716124 -0.053050670009167 1.192862465614213
205 1 1 0.357867727080597 -2.464845796940261 -1.769553226528879 0.656956041284647 0.263540546591161 0.058256426968692
206 1 1 0.369032886123554 -3.171071639766577 -1.000194490785159 0.995125305474320 0.359324203847240 1.328295877398363
207 1 1 -0.400977446415341 -2.447894475550465 -1.020885980141165 0.311359720708573 0.388434901566764 0.982899617224659
208 1 1 -0.394058350725992 -3.198430270478051 -0.315307941942160 0.226429083977250 -0.237211569016105 1.326609116350110
209 1 1 0.354684852510419 -2.462667846145956 -0.366026487271298 0.869094731995880 0.689076460607614 0.243244769990769
210 1 1 0.361020783496401 -3.200249037486782 0.341022234912114 0.727556927182245 -0.046814269355186 0.180856488414437
211 1 1 -0.368249934813237 -2.466227406945364 0.328738207541079 0.607538570490750 0.194145759137333 -0.052257227246079
212 1 1 -0.339822713931556 -3.196157618279563 1.049407179665351 0.943095416574069 -0.393559316143831 0.484023349259046
213 1 1 0.364647359821115 -2.463996763387762 0.993579809046207 1.382752103023048 -0.003623617816998 -0.519295598511773
214 1 1 0.334244558417571 -3.153576017933417 1.746375307465281 1.063073408662390 0.255460578180557 0.507982608196662
215 1 1 -0.370589753264818 -2.429560414039925 1.722008061014254 1.226994137408004 0.094271596982531 -0.255543381759165
216 1 1 -0.385485677430075 -3.166282536779435 2.466382237146246 0.688598961764416 -0.394376956918261 0.820939039361947
217 1 1 0.340485898279331 -2.460670860024909 2.446386515949594 1.138892471057473 -0.260461246656784 -0.340254684082260
218 1 1 0.364349048254336 -3.164385440346287 3.160595990468672 1.108988049190764 -0.285558163632124 0.100886681145647
219 1 1 -0.359788669990293 -2.473272055933482 3.190794985531819 0.632079700210073 -0.569917085534873 0.085961982462857
220 1 1 -0.339763771870805 -1.712847537708757 -3.191700041111464 0.669120764765964 0.443234771393937 -0.155613276722243
221 1 1 0.407610811524145 -1.035277117081710 -3.224420629266927 1.299285685309740 0.574253422035052 -0.564836072659911
222 1 1 0.375811209530334 -1.761691872188345 -2.516510022976709 0.798123777381237 0.065861755366339 -0.753659657532079
223 1 1 -0.345773417197021 -1.041260409963694 -2.501388592908062 0.807564498603673 0.048707477226179 -0.388394889627178
224 1 1 -0.375767330139716 -1.748885957483004 -1.760910993400580 0.396631763923194 0.320874140287093 -0.073679308357551
225 1 1 0.396523162223987 -1.081652306959721 -1.794427502165474 1.391547063146605 0.042339821361678 -0.229306155243990
226 1 1 0.375367640132195 -1.761765615760986 -1.063438228657737 1.261976465812562 0.305110116556715 0.147238220168395
227 1 1 -0.359997934699419 -1.037657690677672 -1.061184657413393 0.741142364583381 0.231713540066103 -0.051466133861392
228 1 1 -0.365764282749049 -1.730997917670633 -0.364437349873784 0.732465461480949 0.516982624011349 0.213705564821919
229 1 1 0.368357892892665 -1.093859898299914 -0.399598806971145 1.165835990709839 -0.038174432631239 0.135600277151875
230 1 1 0.350326549733600 -1.770766035647535 0.273699647996529 1.204942756253778 -0.059080019151938 -0.751974754588538
231 1 1 -0.369607032829339 -1.076592569666742 0.318174909274104 0.855187902093920 -0.205751943464797 0.065240516519102
232 1 1 -0.366458561209469 -1.741929208455783 0.991765522450882 0.759759667703350 -0.194115959858390 -0.530595063928423
233 1 1 0.388921080662668 -1.065773311033872 1.010207574654526 1.795081686221676 -0.414932615974437 -0.175522314133023
234 1 1 0.329454773432846 -1.754160752246275 1.721088227796999 0.924010003793516 -0.364135649638788 -0.367240905709812
235 1 1 -0.325572965066942 -1.056873614180025 1.756240580816194 1.598833163836525 -0.437657986605116 0.247937530900614
236 1 1 -0.378764005335804 -1.759571387633759 2.488997997216454 0.313708311388426 -0.358081697334692 -0.040569373820312
237 1 1 0.424549935072406 -1.052770341205024 2.446442082309380 2.177846278337402 -0.172463617106167 -0.630367170457987
238 1 1 0.404480297680911 -1.724266830419161 3.120393541326538 1.437500508230037 0.212831969978778 -0.754306662883644
239 1 1 -0.310717218702831 -1.041413481700914 3.189638214021000 1.381279533877019 -0.047935856925278 -0.018538832416460
240 1 1 -0.293337589458579 -0.321202494918241 -3.219225533538688 1.450719757812367 0.145460992126353 -0.212578002050458
241 1 1 0.426044558960016 0.324271169475600 -3.204534071002179 1.695349478294035 -0.613820587230787 -0.055038006300447
242 1 1 0.381129083606673 -0.375080926617070 -2.505799390629775 1.093018803959442 -0.255511398761399 -0.114725205329988
243 1 1 -0.323609466848705 0.323722211938686 -2.513549999522573 1.022459919030642 -0.814698446573552 -0.317960107143453
244 1 1 -0.358905845845903 -0.366877220864112 -1.766399961618765 0.714781464468926 -0.316536068193844 0.226676734109436
245 1 1 0.376055853740696 0.286881573749205 -1.774657701110243 1.316759390814244 -1.416437918015807 0.655589667165797
246 1 1 0.368619811540531 -0.393348931600373 -1.086630300386500 1.348031658063773 -0.400794986439540 0.585837011601015
247 1 1 -0.354088355539917 0.308379093748762 -1.055035606756200 1.136914703192142 -0.946743622780315 0.844130325880377
248 1 1 -0.333298566981577 -0.374243018831258 -0.380088389450493 1.179496874028330 -0.059652295168991 0.656178683559519
249 1 1 0.389846792608766 0.306377320531336 -0.359717690899430 1.721056584387135 -1.025657900966174 1.072234022652576
250 1 1 0.376109944437833 -0.398986594416160 0.306928689553358 1.568643477682518 -1.099020188646002 0.176735752572874