ITEM: TIMESTEP
40
ITEM: NUMBER OF ATOMS
500
ITEM: BOX BOUNDS pp pp pp
-3.535000000000000 3.535000000000000
-3.535000000000000 3.535000000000000
-3.535000000000000 3.535000000000000
ITEM: ATOMS id mol type x y z vx vy vz
0 1 1 -3.181129394822913 -3.152752949843196 -3.208516662934624 0.217987106871132 -0.981595966981817 0.514546007768996
1 1 1 -2.519645380197173 -2.449852315498218 -3.213837252018053 -0.435503012445343 -0.736498901349561 0.088082487740569
2 1 1 -2.477492974487722 -3.200095596635705 -2.455889103926402 -0.488159929915207 -0.798205987109165 0.847853590965692
3 1 1 -3.184350473402297 -2.489906589309619 -2.465409221549663 -0.292601134401410 -0.814035320659089 0.243233402575527
4 1 1 -3.195094849081235 -3.222324911091735 -1.752304876532062 -0.352464222671760 -0.989838469225941 0.734809275581272
5 1 1 -2.545551277770185 -2.492369045781624 -1.730195690330531 -1.152579222094582 -1.061011242528685 1.009475825860747
6 1 1 -2.530000165091489 -3.155431355166482 -1.023707732420241 -1.196297383751410 -0.207372063192372 0.904790766186134
7 1 1 -3.275086403493099 -2.484311719599917 -1.033479510516428 -1.181689423562487 -0.855337957271025 0.543202655949687
8 1 1 -3.268705937365202 -3.142858054491829 -0.362589514627548 -0.826199226702681 0.313222002790847 0.321941049038318
9 1 1 -2.597110918667383 -2.465173582172083 -0.370272411035094 -0.930692923317681 -0.228384642376252 0.733052686732399
10 1 1 -2.578546352213341 -3.150726189765056 0.305679026349551 -0.984291013364764 -0.186278954315605 0.246633147949389
11 1 1 -3.295752621589647 -2.445477209223169 0.280297979997567 -0.787330346628880 -0.216883685075849 -0.280806797094626
12 1 1 -3.266159038418403 -3.164225964452667 0.988882602505955 -0.272683218520436 -0.418857667143782 -0.452313182098221
13 1 1 -2.596144008246738 -2.453340890805577 0.960488333549718 -0.263811447552964 -0.485860218376940 0.117481066337130
14 1 1 -2.504545684690643 -3.158683674203603 1.669437899866576 0.527991255697041 -0.259299969954414 0.243469833327801
15 1 1 -3.252082698288724 -2.455837865644037 1.673261827823742 0.210162785775485 -0.343338673821097 -0.252372067750918
16 1 1 -3.181349607068963 -3.141659862348840 2.388344061046491 0.703143246324372 -0.406720925635840 0.023226585881148
17 1 1 -2.513948241148183 -2.428949323090304 2.426604026331551 -0.250521202171829 -0.705985943655128 0.618155055518539
18 1 1 -2.494953875650052 -3.149755995135196 3.150009068484192 0.227138609881522 -0.507402889651117 0.798454725047549
19 1 1 -3.203644587728061 -2.433293155467924 3.139526549681249 0.169187967376621 -0.534892560698894 0.326384318358394
20 1 1 -3.179325361390176 -1.711954092686129 -3.187346483001329 0.027868234021665 -0.535303208364989 0.381780004158728
21 1 1 -2.511785964616387 -1.024757924634652 -3.173034301948917 -0.452833286735186 -0.571301013706507 0.634894261224135
22 1 1 -2.514180636990095 -1.771868767659411 -2.466741754824655 -0.296956730253184 -1.200627141270650 0.829791344575889
23 1 1 -3.235912702125466 -1.037270809435810 -2.440566281475032 -0.469625543012087 -0.399571982566184 1.064514010684621
24 1 1 -3.244612353243209 -1.780296025980105 -1.716918047738304 -0.824790785392214 -0.852876010548963 1.153028852121951
25 1 1 -2.545488750255601 -1.076817780494546 -1.738199340320841 -0.994458179669610 -1.702494227597279 1.163054219979917
26 1 1 -2.604378763161299 -1.780613010026976 -1.033564423127835 -0.867718695376704 -0.875326749189096 1.320059222830938
27 1 1 -3.308562933886334 -1.028909434512699 -1.074128341755278 -0.849397009688225 -0.854100294361044 0.128681250665945
28 1 1 -3.307310119304301 -1.735732391045153 -0.384686774934376 -1.270906701540182 -0.129644949359685 0.214597849478612
29 1 1 -2.582130541437911 -1.046876449392971 -0.410363167479354 -0.933607320290937 -1.073807859788579 0.387450717224482
30 1 1 -2.609909102756851 -1.760739840231023 0.270678951121989 -0.723687595564597 -0.886062784374942 0.056474950033134
31 1 1 -3.304176400484566 -1.055242407473514 0.262097693347974 -0.855919573030216 -0.965902342501306 -0.142949162050349
32 1 1 -3.302827785432926 -1.738744331121988 0.954466924058822 -0.998806342752275 -0.652677710552054 -0.387900850869976
33 1 1 -2.527717713560893 -1.000233793608485 1.018989682554641 -0.152942480631793 -0.315635603394692 0.535059963880864
34 1 1 -2.543185766627853 -1.755326061641239 1.699102718787829 -0.175656300055440 -0.834940871851000 0.409302581749233
35 1 1 -3.223415903458882 -1.001658575200003 1.719452009449822 -0.272374188319489 0.011344485142054 0.353322433292409
36 1 1 -3.200776252755337 -1.713597230037317 2.457832085546619 0.070198184966948 -0.353122126052698 0.545172407352936
37 1 1 -2.481324244916936 -1.017212014641764 2.481752776077654 0.311704001670388 -0.889966687991888 0.987252767940355
38 1 1 -2.494197364159679 -1.741612582772162 3.144301155413368 0.371528582740869 -0.861684557532607 0.378738419706833
39 1 1 -3.198576339180166 -1.020388191181228 3.186244578960607 -0.303408616175166 -0.798515715559724 0.918385665294275
40 1 1 -3.194993712660932 -0.276344169987235 -3.194407905336756 0.162545520018967 -0.333392710030311 0.437090412637667
41 1 1 -2.452756532603566 0.392689475805889 -3.225499280600605 0.670648131636686 -1.452653617227728 0.839623778461577
42 1 1 -2.485764663874745 -0.288868477031971 -2.459820163107212 -0.191765339504772 -1.180949249225140 0.845849762562382
43 1 1 -3.139820906164910 0.399975980980606 -2.476635599007270 1.242290024718430 -1.082293039997526 0.902088631380031
44 1 1 -3.253530701535887 -0.343697605883515 -1.732206605831679 -0.332448033165506 -1.233541705891682 0.949680490326747
45 1 1 -2.531989719619816 0.341931065351630 -1.749487862859098 -0.430817410127256 -1.895656977535647 0.979936135616618
46 1 1 -2.543990052572935 -0.308218018616397 -1.086018718708571 -0.583319104661436 -1.038115330202144 0.553020091430910
47 1 1 -3.242058537571185 0.366468456026820 -1.055395508093655 -0.061209330521243 -1.583010144225174 0.679123231352000
48 1 1 -3.272551266256476 -0.319338605701634 -0.366802652301593 -0.913495831702468 -0.981053010514582 0.907270873092551
49 1 1 -2.515315006466865 0.361055895798855 -0.362622461229612 -0.238611808433360 -0.913247601669689 1.048927674598721
50 1 1 -2.521610810625617 -0.299854951708558 0.309130374406163 0.000880037552733 -0.504206702209919 0.342984401114806
51 1 1 -3.199700861292641 0.424738027721526 0.335071048576604 0.142653208159098 -0.574707494922330 0.384211077011394
52 1 1 -3.226051555349196 -0.268835904807754 1.055252820091773 -0.077371511859902 0.101087829920250 0.591712901705501
53 1 1 -2.477386900572291 0.391980126039245 1.037418292089108 -0.043853472954129 -0.620775396553005 0.525261770557241
54 1 1 -2.464191950767963 -0.324513844335681 1.788917063611728 0.388663093033951 -1.055836441079517 0.848850691190075
55 1 1 -3.179820386776355 0.380025323646721 1.777353397028874 0.390988899329410 -0.933535261276379 0.673094662949356
56 1 1 -3.193690299215746 -0.291631032609714 2.522270301800321 -0.083074464725045 -0.666787435014685 1.057613818222547
57 1 1 -2.434868190330384 0.377741597762383 2.415791465353085 0.356490483738759 -1.316309448949417 0.456207788286611
58 1 1 -2.460675665701917 -0.312558477704570 3.120837523755700 0.339870091690534 -0.501688418383641 0.343229587459039
59 1 1 -3.162457697570000 0.406935568268459 3.123581819626560 0.672909841036544 -0.792502986848186 0.655777198398681
60 1 1 -3.151077817668749 1.103394745122448 -3.222649615216566 1.284938108769627 -1.301463542143309 0.806821627644508
61 1 1 -2.457489850996738 1.810592823092000 -3.162363670414057 0.999722269444315 -1.526162192029726 1.121255997947278
62 1 1 -2.472598116019898 1.066312900482052 -2.456937936588679 0.308436125192407 -1.838108636768473 1.332743014868115
63 1 1 -3.169912079284204 1.831684280483030 -2.431366318844441 0.695153562635655 -0.962750734030217 1.344082723306234
64 1 1 -3.203742815130159 1.011945749516361 -1.749930255342748 0.371721921154498 -2.068933509186003 1.169508483722353
65 1 1 -2.477821281037690 1.755410170189172 -1.698140366512428 -0.383897617893579 -1.878763088020136 2.003538147489197
66 1 1 -2.495942461532482 1.066175674937053 -1.017148737705132 -0.130935295022746 -1.696699741704335 1.984946144351114
67 1 1 -3.196037615961365 1.761405962828737 -1.012742691551599 -0.344101582556254 -1.896696572597023 2.069810758898829
68 1 1 -3.212919865979420 1.087371599006883 -0.342321482629809 -0.156872000384726 -1.217368249283222 1.358853361885295
69 1 1 -2.449378326950874 1.762697270843197 -0.314813012981374 0.301713428340838 -1.107749555485241 1.617018904655848
70 1 1 -2.476957689527168 1.077271808650205 0.351327337690830 0.011437377390281 -0.937231967844608 1.087992361365961
71 1 1 -3.217844214103621 1.793451826253310 0.352010367989361 -0.220350916971227 -0.817424487997937 0.750714492870274
72 1 1 -3.192803871960492 1.098001821311079 1.052604560583876 0.152531299265413 -0.849845617893902 0.706672869854273
73 1 1 -2.489757846121640 1.761887880447234 1.037765660684917 -0.025746649432884 -1.201552238213505 0.705274146607842
74 1 1 -2.453757687073706 1.070850785067852 1.726792696998873 0.510219454912678 -1.106999903254487 0.862350205361125
75 1 1 -3.206811916819392 1.796205270494907 1.748882584989985 0.509998508505256 -1.192918115182609 0.734083974167639
76 1 1 -3.151660437746627 1.078394899675971 2.415372082167379 0.839084271211703 -1.347019647218988 0.525172853600670
77 1 1 -2.438620894980206 1.802476025140950 2.453484264589594 1.036049386532044 -1.094705920320646 1.678360680012966
78 1 1 -2.432633948423830 1.104105401383058 3.145099759366294 1.054389832478760 -1.148475032523541 1.508692231441189
79 1 1 -3.163448489847998 1.823336507631073 3.143822324423037 0.902614226921575 -1.124875534409443 1.113920716816052
80 1 1 -3.174963286075487 2.524649250861317 -3.169741733073108 0.547742994103390 -0.982495317927262 1.369193271059979
81 1 1 -2.466560483577903 3.215921186516074 -3.165466920356724 0.395384994721620 -0.792723307426559 0.954055739920661
82 1 1 -2.455942259060514 2.485798456717322 -2.410414921686666 -0.198978910410500 -1.649265034369860 1.999365110366277
83 1 1 -3.158353711256594 3.170655954692080 -2.436995907442706 0.203189807209342 -1.345439561206458 1.189329397425151
84 1 1 -3.203681865872728 2.429068019997140 -1.686215464690735 -0.425683902526394 -1.832401303698678 1.941272439308393
85 1 1 -2.495787496810923 3.130100812236021 -1.690017609339476 -0.625568846790351 -1.391658945200112 1.804035229760913
86 1 1 -2.479596930220806 2.464782418514675 -1.005349933005820 -0.427391872025801 -1.282083016349584 1.509785158803472
87 1 1 -3.193120738942091 3.162235651324388 -1.028496622424727 -0.298308446895445 -1.307823753503426 1.175451259360171
88 1 1 -3.206081762003702 2.493283258806489 -0.316679207358920 -0.333018978058234 -0.596574513977514 1.364215423195334
89 1 1 -2.548103876664644 3.203302809357646 -0.334731968092861 -1.138318365974620 0.192658341832622 1.446444320664894
90 1 1 -2.533698501789602 2.503601119313407 0.360076783823158 -0.773691095891738 -0.108091704364397 1.015682149097383
91 1 1 -3.268614174293328 3.197971492271042 0.341371096987163 -0.981822530573042 -0.172332208830330 0.584927132088844
92 1 1 -3.225430255169967 2.503019309285261 1.056583037732794 -0.063123065914320 -0.550813315598498 1.021254630296009
93 1 1 -2.563330855980581 3.202801881635391 1.024664409133630 -0.519968947631849 -0.296782340309796 0.881731962729916
94 1 1 -2.520196662771309 2.495993038701961 1.758334751739547 -0.139352266906385 -0.635841503241867 1.268590581634537
95 1 1 -3.226765007507156 3.186217371787204 1.733647048595317 0.157215455865040 -0.626797022155613 0.605894307618337
96 1 1 -3.184451763106397 2.525720574697143 2.442320658910917 0.499693477005706 -0.957784437497372 1.235178291264086
97 1 1 -2.438466968427488 3.205976174661477 2.416267080668387 0.796850064543371 -0.638873054732006 0.954817376253394
98 1 1 -2.431988263573581 2.501732847641942 3.149559380835112 0.966936743124182 -0.977371050128282 1.160096097584247
99 1 1 -3.167182710568257 3.237433554231831 3.124064085549445 0.801086529256510 -0.453892339479153 0.982109028795140
100 1 1 -1.798446168494227 -3.170273605734716 -3.185989114402072 -0.068915714509696 -1.398583387960566 0.645099080229653
101 1 1 -1.071477014863619 -2.492777751123889 -3.160663643090122 -0.611968659534862 -1.524925754715420 1.187696493750574
102 1 1 -1.073393819325632 -3.247400858503469 -2.428510599123952 -0.920378706339636 -1.935409539443894 2.042814857212512
103 1 1 -1.793498304940794 -2.500471255859295 -2.425829283441197 -0.910646803700958 -2.073479141248067 1.682098856269750
104 1 1 -1.807988181439109 -3.228005509043710 -1.731843326130367 -1.575824469119717 -1.740596936210712 1.428594491822041
105 1 1 -1.109223433582135 -2.500305246036976 -1.693851045053978 -1.189492643807478 -1.474298999373229 2.342006220478298
106 1 1 -1.117331901791727 -3.191000412572786 -1.007859297891136 -0.588377336627610 -1.018428290165106 2.996637581457877
107 1 1 -1.878445529202300 -2.491512419026573 -1.019035677163111 -1.030784486299458 -0.938547050057476 2.381662193185044
108 1 1 -1.861715589793721 -3.173202032742006 -0.340993532054496 -0.730937236548421 -0.330384384110004 1.633156116497845
109 1 1 -1.104361925224719 -2.452572943606170 -0.336667936134080 0.087725951330705 -0.238747819067535 1.434447316595378
110 1 1 -1.138761585897724 -3.172334318650697 0.366826383104435 -0.485572784554752 -0.286235982786616 1.306090615885424
111 1 1 -1.901003766605964 -2.465301192417039 0.323147077460373 -0.670320446411800 -0.396688102916525 1.005269071010186
112 1 1 -1.805486764956984 -3.179244861279109 1.028136014656643 0.163809619292895 -0.525930603948680 0.875773246714849
113 1 1 -1.088325490755728 -2.497329472447385 1.014931635020694 0.095376760779224 -0.797763124056377 0.893096898166958
114 1 1 -1.074820985838717 -3.201170355922608 1.748271684167370 0.516221408095718 -0.791708657336682 1.038061260459802
115 1 1 -1.807924243807130 -2.459827902502505 1.717063611585611 0.152126133942173 -0.496709694627060 0.905302286638819
116 1 1 -1.802134086716462 -3.137389417420746 2.461786181528677 0.262957419361088 -0.540915545716887 1.385895753717177
117 1 1 -1.069372522265327 -2.449594815016034 2.439798593380559 0.775885884578219 -1.628821049366538 1.203352370203952
118 1 1 -1.100906030425160 -3.219212038213333 3.155278157873357 0.101564768682592 -2.196707137083902 1.000559145324572
119 1 1 -1.815567859897504 -2.469823366642633 3.153445912976094 0.000520606270790 -1.568555651425303 0.673906981427160
120 1 1 -1.782940504647846 -1.725851872560687 -3.165274709375230 -0.604950317515554 -0.990622260129673 0.923033528998929
121 1 1 -1.055948608152317 -1.026662732745023 -3.188947185467763 -0.832695181666929 -1.517842574255346 0.746309807986949
122 1 1 -1.103820414100572 -1.775258135448074 -2.465362963068215 -1.467458838923726 -1.882752704383946 1.149418187369214
123 1 1 -1.766990500117110 -1.044242889118845 -2.429900057855731 -0.689787452987184 -2.074719625621712 1.147560020469023
124 1 1 -1.853164807210254 -1.808676475902020 -1.707175055195400 -1.754207267117293 -1.669794519061341 1.808001240482693
125 1 1 -1.088456365947692 -1.042315772665228 -1.783917411495833 -0.522729171090656 -1.166126778795292 0.651190806768116
126 1 1 -1.119430549152848 -1.728959425178006 -1.073484675892115 -0.102932581511407 -1.267397424794317 0.990768025458703
127 1 1 -1.855610492768215 -1.035347529270233 -1.075858575345219 -0.645703641052673 -1.149831924503029 0.989554241257029
128 1 1 -1.854965070835991 -1.771091651270298 -0.381868349722845 -0.403836715169539 -0.713689828915436 1.047990929544058
129 1 1 -1.093956066720926 -0.994568492319865 -0.400289736348464 -0.251479077598014 -0.303831341885263 0.222646386064918
130 1 1 -1.103895418598518 -1.735795295064691 0.308512705495542 -0.437141764602541 -0.837407509071664 0.461993341277816
131 1 1 -1.794135952049861 -1.020726893357348 0.304077281807656 -0.136978213450652 -0.618618671309263 0.400199643198903
132 1 1 -1.795536875330365 -1.741220759114971 1.007028755709303 0.101817501419753 -0.600764945631873 0.746204329028360
133 1 1 -1.059352052443534 -0.992954288699095 1.005455444178442 0.004346581858707 -0.267806754640393 0.664366954546181
134 1 1 -1.066520716118116 -1.722318768454599 1.727305154225236 0.290975186276851 -1.615939993273466 0.941737354458566
135 1 1 -1.755174881156188 -1.020369323393042 1.750971652845120 0.252220202714012 -1.011074196713328 0.948824464602196
136 1 1 -1.775429880406406 -1.738256854684589 2.471382084540117 0.685219465483043 -0.953733354852027 1.566172370536365
137 1 1 -1.038966717585532 -1.013898023470337 2.427108127444292 0.172739605214375 -1.163390947620683 0.576929487666453
138 1 1 -1.058646641557650 -1.761893563110060 3.157378606403360 -0.360511424900565 -1.946623948928062 0.030761444020187
139 1 1 -1.749004171723007 -1.002789394485630 3.151938564476763 -0.101362665761209 -1.273317154954835 0.478533526362254
140 1 1 -1.764341516308632 -0.298879870938629 -3.211438249831169 -0.627095450604631 -1.614104443222755 0.606064703346324
141 1 1 -1.021499555881428 0.370843678067352 -3.182107291523353 -0.280383206934069 -1.916198380044765 1.208346066885388
142 1 1 -1.053065787788129 -0.332737183272740 -2.509602444610754 -0.400990782340378 -1.383346641767548 0.630023231659262
143 1 1 -1.765880395672946 0.366888968484441 -2.467742801567631 -0.195471017094190 -1.852050828263004 1.127173305295487
144 1 1 -1.822892103786694 -0.350482485099061 -1.784518968039498 -1.110651537742752 -1.720213284074241 0.879536776356326
145 1 1 -1.056376876064299 0.354805278108661 -1.748215933285888 0.037115842764865 -1.529977410921241 1.342762510123087
146 1 1 -1.087102161947602 -0.306500589662771 -1.047011833762284 -0.028659387331893 -0.535166802375703 1.043177483355171
147 1 1 -1.817169327367791 0.330193437290950 -1.058900760615634 -0.455776581553266 -1.787724078271364 1.334415783230411
148 1 1 -1.818487280809870 -0.334091257002111 -0.393942327238176 -0.518434426053270 -0.968454416640678 0.515158737111775
149 1 1 -1.030798622473685 0.375611843505570 -0.347277469161183 0.248576061616956 -0.645203171679800 1.369515873392297
150 1 1 -1.067227659474565 -0.292792869566302 0.318186975877724 0.145478920920359 -0.142953156586116 1.017386431576444
151 1 1 -1.759555927806591 0.399208023996802 0.343413816649761 -0.030242949242534 -0.658873733258895 1.316685474051572
152 1 1 -1.770469813424002 -0.291244084307723 1.027706886262187 -0.030657881760641 -0.334381819227013 0.721737932231290
153 1 1 -1.013486670818048 0.351161087737929 1.050066099489624 0.112603800515224 -1.442372327228491 1.452876170891092
154 1 1 -1.037707780463596 -0.310669295568253 1.755986920589600 0.099901195749435 -0.881630927915053 1.217231475579602
155 1 1 -1.755119980881348 0.384935505221317 1.760916645846075 0.022927009494793 -0.944828220573432 1.365043691690411
156 1 1 -1.745647018501381 -0.293192903355860 2.451918535942228 0.230985929429740 -1.103455908349637 0.864707149634352
157 1 1 -1.023551086829426 0.362953019808454 2.442437867357544 0.116967998044324 -1.592146463973579 0.662756888856662
158 1 1 -1.014751351680426 -0.327685294293341 3.171833104015066 -0.119946754706343 -1.485070661836430 0.740086716492218
159 1 1 -1.755873116518408 0.414383008869409 3.115980725973731 0.010307231031331 -1.514930546309022 1.039146918905845
160 1 1 -1.714979137724640 1.084875436226884 -3.182261970102325 0.553592972879700 -1.872429394712943 1.082865918844532
161 1 1 -1.016702906580703 1.713073641860806 -3.173867550012894 0.773738240807281 -2.376447066777432 1.127356627296525
162 1 1 -1.032146597309207 1.006651972320921 -2.470203271121419 0.115563664603354 -2.153455829986968 1.115570206187249
163 1 1 -1.746725357064886 1.745542150168984 -2.408410449111576 0.105766026339212 -2.269805223409953 1.438208951322459
164 1 1 -1.756384212246319 1.017142941111050 -1.738428910756358 -0.023562058513659 -2.222087204045315 1.491892029566866
165 1 1 -1.043858078479290 1.687446365735598 -1.672829126312410 0.280920578758621 -2.431552083376708 2.336483047974794
166 1 1 -1.055667724433990 1.011064637680930 -1.002970065833513 0.293980475692277 -1.620934735606781 1.980427284661966
167 1 1 -1.761796253045494 1.763151830015463 -1.003255053306170 0.220141969648372 -1.574509824356007 1.964429746965970
168 1 1 -1.715963195508875 1.080982848971113 -0.344151576566191 0.450332684374970 -1.141357127618246 1.382528951382612
169 1 1 -1.020159718573078 1.740228393110061 -0.300767069204671 0.681436203788072 -1.137707229444447 2.199083978112276
170 1 1 -1.027527515737971 1.021884806761306 0.354653002400446 0.373361174351172 -1.673787679840501 1.659699324719318
171 1 1 -1.777777890790880 1.796259848938305 0.351373844306300 -0.355791140323962 -0.411262996654474 1.347863182586030
172 1 1 -1.750298733660000 1.085547493785878 1.029955451942639 0.073206702030601 -0.822301220131474 1.392711683440360
173 1 1 -1.057116497638842 1.707866098049307 1.078426265307062 -0.154739980655255 -1.872388425462033 1.802447372475291
174 1 1 -1.038555867175088 1.012272432949008 1.762918525044922 0.060038914572267 -2.202483635824607 1.455356375739043
175 1 1 -1.773697082683154 1.783121706931325 1.758932339693428 0.238170145979894 -1.036080141445190 1.866013690780798
176 1 1 -1.741172171666339 1.099504500214606 2.430608267748710 0.339129062379797 -1.529179551412795 1.449622526042976
177 1 1 -1.003598739901749 1.756042222824359 2.492404267180668 1.079952025340506 -1.901012477442965 1.758531369519692
178 1 1 -0.987444425746221 1.037362384396119 3.190381091371378 0.713726437580971 -2.661548768727968 1.424813289706550
179 1 1 -1.706156471087950 1.795256398153390 3.206650538129101 1.018382024539936 -1.429470692920054 1.272245859669351
180 1 1 -1.752394693559564 2.446539683357763 -3.135882056303100 0.309017265688444 -2.006573690135421 1.310349077468265
181 1 1 -1.090787860757034 3.142728011043878 -3.145480976972526 -0.167431954894842 -1.758031649075328 1.614616219390862
182 1 1 -1.055629415125294 2.404224364142890 -2.411533689612347 -0.252278367317864 -1.716592252012081 1.937987347769364
183 1 1 -1.780662596426383 3.141351670191619 -2.406144840238056 -0.871370006354648 -1.568192480848083 1.386020764266194
184 1 1 -1.762710722308836 2.403325565591392 -1.690415828275771 -0.016558724686266 -2.042049793869354 1.960342317293161
185 1 1 -1.074160773235465 3.124838552154202 -1.696348341380151 -0.607457522051046 -1.844316659273087 2.620322657335603
186 1 1 -1.051220734058401 2.434055749568426 -0.978575609165681 -0.092783818592885 -1.143568722970618 2.495308800403094
187 1 1 -1.801569802857297 3.170936111047674 -1.010452810851659 -1.162334988759383 -0.772185363092627 1.890506201706373
188 1 1 -1.798540597718199 2.470608237271379 -0.320646825063850 -0.630080813518952 -0.373986181345480 1.870726077683065
189 1 1 -1.109920295432222 3.172928471549813 -0.295293050892328 -0.379448894222867 -0.764667555999322 2.388470674195879
190 1 1 -1.073411264685225 2.446786226222401 0.396843175475440 -0.188907852797487 -1.226318501926991 2.049736033594231
191 1 1 -1.847210172022096 3.186720120101153 0.375336350984246 -0.738518437297702 -0.225595346699668 1.534158516535262
192 1 1 -1.800417366968068 2.485765759963165 1.076950200670644 -0.201389314573096 -0.820197995064834 1.675987146924974
193 1 1 -1.100860822659006 3.128480812731684 1.041879371260936 -0.307641198175926 -1.603824604902143 1.373191860083996
194 1 1 -0.996754306737237 2.424207000703842 1.790480735062859 0.941739523286158 -1.934265443555197 1.630782603674216
195 1 1 -1.756105801658583 3.147305859117964 1.765846085326984 0.309847408427602 -1.224056940551176 1.284929403507515
196 1 1 -1.705261390037775 2.470478648891440 2.494153681103117 1.155270534045143 -1.389990179022980 1.648988037567930
197 1 1 -1.057328797438589 3.197819918032383 2.478594335918944 0.843323558049300 -0.964252099351883 1.513060283705553
198 1 1 -1.035766263714891 2.398251161925636 3.191167708801396 1.149611305433657 -2.332531588637930 1.355137100959125
199 1 1 -1.783920271400009 3.211589703672062 3.200339819004308 0.151483796424989 -0.705172576737665 1.317792782132048
200 1 1 -0.361166193177989 -3.189183630726604 -3.157969048446124 -0.218174482580630 -1.689476274116583 1.842764771412372
201 1 1 0.403501333164843 -2.417500395887414 -3.229731003558117 -0.046439712176562 -1.189607230378018 0.629269861364647
202 1 1 0.404578227769889 -3.138642493570124 -2.451798176869784 0.212162923198159 -0.950073790821052 1.690975988272623
203 1 1 -0.367385430517081 -2.425281528756293 -2.451604670932916 -0.609716344295073 -1.554991939593635 0.976821124123656
204 1 1 -0.364919543821886 -3.169827634756122 -1.724012499881825 -0.386537950911537 -1.125633071415909 2.131331934970315
205 1 1 0.345844536023753 -2.459252365035960 -1.774797710505654 -0.232650582283217 -0.799344651028129 0.930647232665174
206 1 1 0.364941809316679 -3.158699707933072 -0.983896337862663 0.217307318363501 -0.166800728174644 2.223665941861941
207 1 1 -0.413789557790334 -2.437467700279228 -1.010215425156246 -0.003680944262308 -0.071877333289153 1.787455923808873
208 1 1 -0.411694152795691 -3.195434122626235 -0.301325867355385 -0.420697112038371 -0.427152065867671 1.877393653939607
209 1 1 0.352583104443784 -2.444853627029625 -0.373759593470790 0.346568327613650 0.090366069337958 0.607251338674506
210 1 1 0.354705158411929 -3.189359538177282 0.332128180694315 0.198568851831311 -0.025397569056261 0.844698634598500
211 1 1 -0.378145040138154 -2.457795862462141 0.317313710819469 -0.029868616756623 -0.287899119571551 0.613705638143851
212 1 1 -0.341879904450545 -3.192983273746392 1.045685299962060 0.454797607643992 -0.561743003049306 1.275258172506636
213 1 1 0.373073228591015 -2.454279058097422 0.968133726988678 1.039574561504358 -0.664645730723913 0.129145066742288
214 1 1 0.340134290747683 -3.138027733719790 1.738775389312496 0.723096085207506 -0.298572116962172 0.929400068442948
215 1 1 -0.363337371375460 -2.422533496644649 1.699608191307299 0.838247460836876 -0.966237068880922 0.281629253562054
216 1 1 -0.389701635982215 -3.171575323481076 2.471562299606351 0.195891297927852 -1.424286184746845 1.472973553994882
217 1 1 0.343426125558925 -2.462837334876733 2.427493434352356 0.662205525212867 -1.010407110627573 0.477886292142601
218 1 1 0.368334881274322 -3.164489883304280 3.154519131083149 0.601239684081658 -1.191750990255460 0.867467368892058
219 1 1 -0.367346584949021 -2.485519217863625 3.178994780349037 -0.004450084354815 -1.917932657374568 0.664323184469179
220 1 1 -0.355991118212521 -1.708979419916665 -3.201978451705781 -0.893498714302582 -1.255780064651682 0.711895605043668
221 1 1 0.407265714344728 -1.024297618617193 -3.239309445003483 -0.038789101058946 -1.075314927888599 0.269564912671521
222 1 1 0.368018585694107 -1.758988051823617 -2.535224655501564 -0.348717502801135 -1.196116242545439 0.150549493401264
223 1 1 -0.355167879965498 -1.037758583850709 -2.512481147047310 -0.493338270247985 -1.210946130085454 0.498510344100798
224 1 1 -0.391855128551819 -1.742757812577164 -1.770858034461663 -0.638728994525677 -0.883677713623491 0.679011530488929
225 1 1 0.400394822791169 -1.072601553227020 -1.805104958453470 0.351442089116329 -0.659558555851925 0.622005615019100
226 1 1 0.377143595916482 -1.751466238607100 -1.068191893328946 0.211382932344929 -0.479877010416638 1.025785162043996
227 1 1 -0.367910226412983 -1.027133602077150 -1.071958916091218 -0.194064574753946 -0.452785571519611 0.726884320127412
228 1 1 -0.378030656817515 -1.716896688297826 -0.375927725237452 -0.416776685325658 -0.162227484191197 0.535525149450816
229 1 1 0.371188835023540 -1.086783454436194 -0.410886627067717 0.307361021368968 -0.818464644566403 0.426607199486923
230 1 1 0.351338148948651 -1.767578061369432 0.246978614816342 0.410061642333433 -1.145747874706415 -0.034134967980179
231 1 1 -0.376984505276478 -1.073495434927259 0.303738573340856 -0.068117968266182 -0.877789680798186 0.457106009066411
232 1 1 -0.375813003998078 -1.739594634406356 0.969705132874589 -0.031946505752164 -1.095699090151937 0.473647812641760
233 1 1 0.397604900304772 -1.061922171775850 0.995758710765008 0.490765501487269 -0.955080416808623 0.592844467806901
234 1 1 0.326339789813527 -1.757693284064249 1.706437704477819 0.101308772639876 -1.497856195646589 0.776490100955612
235 1 1 -0.317871598003687 -1.057794064641304 1.744699318192888 0.463783381502325 -1.305895735642451 0.871518606073202
236 1 1 -0.391979420449358 -1.764329477485252 2.474350007813632 -0.297834849901780 -1.598169851301525 0.638693686013069
237 1 1 0.440907584324036 -1.053660743004723 2.426045813177731 0.377120465343572 -1.492079786881449 0.139725701632516
238 1 1 0.405697475771662 -1.723256790126541 3.102357644987934 -0.173051263927742 -1.410718171167253 0.414143357411645
239 1 1 -0.313702925435566 -1.042502604485223 3.181417340577620 -0.419010838198094 -1.615314569860198 0.828949078693093
240 1 1 -0.294478984505239 -0.320467138612510 -3.227372951652421 -0.154683610782110 -1.518245888103072 0.731328973372971
241 1 1 0.438868303651256 0.321785915606193 -3.212019887057503 0.705487991542476 -1.556248206535384 0.867921775371653
242 1 1 0.381398576368208 -0.370507322705367 -2.514377421293070 0.269508447719010 -1.038449842243992 0.742180465188183
243 1 1 -0.328265128626947 0.315752557238364 -2.522481945986541 -0.035493397544693 -1.786438261341410 0.712476548993329
244 1 1 -0.371991910991761 -0.371261851976570 -1.771276861065359 -0.561782645653598 -1.571351181114002 0.878812210627191
245 1 1 0.382468907694096 0.270058555381219 -1.769163290129531 0.533829919231909 -2.035448176361160 1.356122340835897
246 1 1 0.374893611199570 -0.393402022780282 -1.083128191433821 0.543904376494616 -1.004739572069597 1.280970411655902
247 1 1 -0.353274110293571 0.295048470499323 -1.049900935171411 0.306945528455212 -1.613112281055108 1.449706695623209
248 1 1 -0.337582954866647 -0.366617997421242 -0.381551557232558 -0.135100109247211 -0.610632866920953 1.017183466187593
249 1 1 0.399783598951111 0.293823787512219 -0.353535536485676 0.517892243672895 -1.777015375475041 1.445439081475850