ITEM: TIMESTEP
50
ITEM: NUMBER OF ATOMS
500
ITEM: BOX BOUNDS pp pp pp
-3.535000000000000 3.535000000000000
-3.535000000000000 3.535000000000000
-3.535000000000000 3.535000000000000
ITEM: ATOMS id mol type x y z vx vy vz
0 1 1 -3.175535003343328 -3.154210968449358 -3.223452917222601 0.899182695963855 -0.806851365215684 0.154668553014827
1 1 1 -2.526597819908671 -2.451160236872473 -3.237856215572901 0.326848020215117 -0.835767400117384 -0.204839204525834
2 1 1 -2.484263140257115 -3.201510652449222 -2.465477285167764 0.425370163722044 -0.971475321642805 0.464408312871552
3 1 1 -3.189098040632158 -2.488865526267426 -2.489173452798547 0.384359288720677 -0.666642941492491 -0.291803630808175
4 1 1 -3.201914649860843 -3.224341565492427 -1.767125486708345 0.514790354882545 -0.899896146588213 0.135883100686308
5 1 1 -2.565779189362573 -2.496287485351533 -1.738536144243719 -0.103172132267988 -1.064696133416543 0.495233177138024
6 1 1 -2.550075320658778 -3.139843775099448 -1.031758687927173 -0.030637346017779 -0.057598911668158 0.585059771085585
7 1 1 -3.300437310305912 -2.485214468944370 -1.046354862204818 -0.514905403573346 -1.101806964342031 0.156521819711648
8 1 1 -3.284386019457527 -3.122302689323932 -0.378356967263267 0.198374023600975 0.084672332402940 0.066242043453944
9 1 1 -2.619194685790624 -2.451713934656850 -0.376141975886824 -0.577778354433778 0.077923666690300 0.718330958958850
10 1 1 -2.599202626010674 -3.133220140131788 0.291126600202978 -0.308001277258270 0.024897597537951 0.358173067789583
11 1 1 -3.311421284451411 -2.430408937663946 0.253312882949419 -0.200476835925354 -0.060407499854300 -0.492910240124568
12 1 1 -3.274441941853312 -3.152764175980129 0.954416413563186 0.452553280691620 -0.288393121749212 -0.947847457515307
13 1 1 -2.600901208057997 -2.439999195233473 0.936263541916538 0.410308413936403 0.092989820052181 -0.429817671996761
14 1 1 -2.497828851694640 -3.142936328832421 1.656583075580433 1.024550680080229 -0.119700139393136 0.274674131627504
15 1 1 -3.252613693277479 -2.436877993861104 1.642737145939777 0.634183713755425 0.313545228419670 -0.654814221325076
16 1 1 -3.172741756056507 -3.129666661909121 2.370012375874568 1.238059929671790 -0.322861242621985 0.013038594849629
17 1 1 -2.518722143386883 -2.420209567718204 2.417199113272351 0.427502405419698 -0.144200145210212 0.537468915985519
18 1 1 -2.486958656506200 -3.138887045250714 3.141214441055971 1.221360971881720 -0.289537963429375 0.484125887775891
19 1 1 -3.202606901939769 -2.423871912164198 3.119778364232479 0.451305433859863 -0.206868549953830 -0.006138283753302
20 1 1 -3.179473037441419 -1.704998712992731 -3.204021304092235 0.547461601757976 -0.541620925254715 -0.057596720758053
21 1 1 -2.519340278804412 -1.016069415132690 -3.182190520905086 0.439252632131660 -0.267293011207633 0.207463172256495
22 1 1 -2.519447572624249 -1.778041000052047 -2.472236453772042 0.419002965815950 -1.018231425045222 0.504363574902846
23 1 1 -3.247648400585387 -1.026102839725418 -2.442941664199425 0.154396666483922 -0.135590120942212 0.424283427527380
24 1 1 -3.264220249137830 -1.780012240229624 -1.722070126794843 -0.339759417508426 -0.682877113660257 0.381341018910412
25 1 1 -2.568187543784828 -1.084805697568288 -1.741962748181690 -0.546251353106342 -0.838051964895219 0.496681426518319
26 1 1 -2.626167591833767 -1.778220055815946 -1.029887957694195 -0.535426255108643 -0.385644156726097 1.031884275664189
27 1 1 -3.329015962633783 -1.022339184414175 -1.092175667281905 -0.323273921922381 -0.208033968704016 -0.195009726636428
28 1 1 -3.327343290312315 -1.718351274853195 -0.408319931305872 -0.293254900238471 0.343263627834939 -0.612220266777613
29 1 1 -2.603008829116554 -1.041311244146802 -0.424472479038269 -0.554118338416394 0.157380975705454 0.119707321341251
30 1 1 -2.626298956801246 -1.750590206626778 0.247599598155146 -0.246633246631501 0.319644337476908 -0.380943814764268
31 1 1 -3.326196376060310 -1.046399774209607 0.239255654995390 -0.717248402714322 0.039354155544140 -0.181822592642428
32 1 1 -3.325475882467993 -1.725668485211001 0.921576781740578 -0.506804608123847 0.090960701252806 -1.080238676144520
33 1 1 -2.534611832853873 -0.977843560375200 1.005320437706234 0.194503029195310 0.488838983398222 0.234026678091812
34 1 1 -2.548949380517675 -1.745978775013464 1.686863942033852 0.319740116326223 -0.172676212506107 0.482582775619066
35 1 1 -3.234202504005161 -0.974772807262101 1.702480680564329 0.156605086982899 0.614260792632940 0.174807247140104
36 1 1 -3.202676958889793 -1.700466353840909 2.448823991889343 0.312027270981405 -0.042488801728369 0.472287216062200
37 1 1 -2.472504570289867 -1.009616586778613 2.479493412541689 1.096184755967655 -0.343997481649076 0.835369609703463
38 1 1 -2.484002740315404 -1.734771069310798 3.129016371224311 1.290334700263015 -0.207731195074451 0.093359304471768
39 1 1 -3.204812219105053 -1.011758994226477 3.180738654987373 0.329061852800536 -0.304484905577012 0.600199508401507
40 1 1 -3.192022360464379 -0.262423178554402 -3.207726895301134 0.958564912455917 -0.120091673310536 -0.097640080077028
41 1 1 -2.443129235352383 0.396490609081656 -3.230794859420441 1.186619145672985 -0.231852117078567 0.199094572726224
42 1 1 -2.493490520541085 -0.288147510739038 -2.466281698094825 0.136345860159034 -0.518911512194346 0.284311350430598
43 1 1 -3.124698715121355 0.406031687048560 -2.480132085877049 1.187845299084511 -0.290367952160776 0.303739728359526
44 1 1 -3.262978882744251 -0.344217947117539 -1.739118079375367 0.195516109933818 -0.612730472891312 0.245643215493084
45 1 1 -2.546464065817819 0.337342665447312 -1.755852528373646 -0.066051274544819 -0.404542663854860 0.372795695946276
46 1 1 -2.561876071561754 -0.300099431731188 -1.092984567242783 -0.477153504701300 0.089420242903916 0.579555284892376
47 1 1 -3.247843655037325 0.365436068719155 -1.061748740638405 0.229301520819775 -0.425916934444003 0.543599519093082
48 1 1 -3.293495021437039 -0.310880889497895 -0.371434113173162 -0.674599466605713 0.168651088867345 0.561153162907529
49 1 1 -2.522794434746577 0.370871779862621 -0.360559483505184 0.263131369744839 0.070199078765318 0.932733615012037
50 1 1 -2.524536158355916 -0.280962371973279 0.292292653901016 0.426978942796429 0.406172404123829 0.049068855901927
51 1 1 -3.204561619857057 0.441946237749654 0.320917036106112 0.335967535209851 0.111571266408091 0.195331812833765
52 1 1 -3.232698397709152 -0.236494053799150 1.040829460759793 0.413697362565081 0.908627537583583 0.200327033299704
53 1 1 -2.479064260809500 0.410760875527566 1.030426139263622 0.432600185009949 0.390238742314383 0.550902599801532
54 1 1 -2.455014300228352 -0.315362082270785 1.792155470043867 1.176774539879712 -0.213214178013328 1.165746965947319
55 1 1 -3.174660753235772 0.394306573641337 1.773561791272334 0.795842959148017 0.021394975292265 0.681656936955398
56 1 1 -3.195689153505411 -0.280248469555033 2.522981768151502 0.569579569447502 -0.323375689722696 0.897702673035753
57 1 1 -2.429294716053935 0.383139921996483 2.408462097567002 0.698134069877204 -0.074888074017142 0.291790269118175
58 1 1 -2.452333172217485 -0.300479141116391 3.108322624466288 1.072807937232678 -0.154356192402332 -0.080059633790639
59 1 1 -3.151452500293053 0.419038861430726 3.117718903329946 1.142614924902112 -0.216844064011563 0.357405102513760
60 1 1 -3.134907745992008 1.105081418088930 -3.227688561621032 1.155332458937421 -0.883536783533543 0.376924696885960
61 1 1 -2.433903702867343 1.800324596522352 -3.163123252136685 2.203118603848604 -1.229547907915568 0.413433090847648
62 1 1 -2.466270345806167 1.054424388243119 -2.454294492445780 1.016638014754166 -1.007019651637208 0.635469767947411
63 1 1 -3.159829321416483 1.829536053509264 -2.426608118876596 1.460768906732874 -0.960391283204890 0.993141547260896
64 1 1 -3.203850115876029 1.002449193773794 -1.749352238589056 0.642919713342587 -0.881109669526883 0.634866337649428
65 1 1 -2.484531626182271 1.739118196736270 -1.690794130006112 0.501441735556135 -1.450585094934820 0.939753519006642
66 1 1 -2.503680073119614 1.060720752399620 -1.001380859206409 0.224618539267915 -0.774392109319726 1.511298107909984
67 1 1 -3.206346338951823 1.748622693057082 -0.996228055669495 0.202342568269250 -1.314291497186427 1.389601370004805
68 1 1 -3.224635226793742 1.091491029605969 -0.336698490931722 -0.058057593759823 -0.408023955320067 1.014426185811348
69 1 1 -2.445714847507041 1.764648088274155 -0.312027165239696 0.881216390333850 -0.592964260261995 0.813273289114246
70 1 1 -2.477777429759995 1.089200397236071 0.345142712268016 0.459832016907311 0.033500609085136 0.475366226934037
71 1 1 -3.225293136280572 1.799909412993966 0.343215878796882 0.369383100072880 -0.648755023691540 0.298798603466756
72 1 1 -3.195092248551856 1.111368057247036 1.039408649101685 0.472732604892797 -0.143178861453711 -0.024998235719811
73 1 1 -2.489175246649092 1.765536407020043 1.027795243172000 0.903322933783835 -0.546906446914702 0.031518125086900
74 1 1 -2.443998867978419 1.081765526411215 1.722172151704856 1.125031537058840 -0.120307974790520 0.320340940087385
75 1 1 -3.200588939276229 1.801163274735870 1.742713028197542 1.008147450221027 -0.645894339878320 0.295836539550730
76 1 1 -3.137806509775614 1.084265329405219 2.408537778894688 1.140831874735523 -0.428496237144330 0.323414412192996
77 1 1 -2.420363171077732 1.805439023528099 2.462694706722691 1.657450429677052 -0.829784488867339 0.766622854087287
78 1 1 -2.419803293188431 1.105288140328012 3.150039810885780 1.286799600046368 -0.860285586331442 0.710227659745315
79 1 1 -3.150716555981100 1.823097614412178 3.142318175454863 1.438930771514797 -0.839975419081313 0.462202163002501
80 1 1 -3.162866421290086 2.526729344611823 -3.167087426496060 1.677948959136857 -0.755288691587830 0.766276979656213
81 1 1 -2.459856361738245 3.217930410144791 -3.170038403152573 1.347299262926407 -0.760463301886743 0.644674003789345
82 1 1 -2.459801172063841 2.466702402231016 -2.398467882774573 0.740502235142200 -1.769746316070770 1.009425410196303
83 1 1 -3.159336894921255 3.156389763141123 -2.439656038229653 0.760780327743446 -1.475558797372432 0.483096957523067
84 1 1 -3.214095856748067 2.406489684588815 -1.666702012776976 0.336851101694025 -2.077234374977090 1.515531370826258
85 1 1 -2.510180788438830 3.120589574570036 -1.681314306917835 0.206303561362783 -1.481341196612223 1.346659061085275
86 1 1 -2.489230390148187 2.455380663006651 -1.000873239004989 0.425042065948364 -1.428193976519385 0.932051668094007
87 1 1 -3.202950244979606 3.154377363288065 -1.032112922442930 0.505635479011564 -1.240617652225270 0.698237932448136
88 1 1 -3.214293258490347 2.495473324594587 -0.315813082938027 0.420000586495291 -0.851855078946614 0.677570344783409
89 1 1 -2.569245847005803 3.222752279461067 -0.331067295679092 -0.155799013334273 -0.001694105878631 1.146778734554668
90 1 1 -2.543390939678920 2.519001233854373 0.356522216597931 0.584742178389558 -0.238292407317257 0.505209315320162
91 1 1 -3.285892943689788 3.214059329935345 0.330852456489671 0.233211826827889 -0.165754733959441 0.208903332704653
92 1 1 -3.229046866526731 2.511182460737845 1.050612739090828 0.651309798613134 -0.609406332500563 0.280304150201206
93 1 1 -2.576758438674381 3.219519755187607 1.021594852358524 0.259202051810522 0.019220933748332 0.854229802255968
94 1 1 -2.523390321289682 2.504967184462661 1.760831557786833 0.881112121109761 -0.487397913268305 0.828255969294426
95 1 1 -3.229170676705610 3.195382095786978 1.720042100783606 1.071803247057647 -0.429896771650802 0.000422763697927
96 1 1 -3.179041253617375 2.529361679402076 2.445457660501108 1.176227862593771 -0.775751919657423 0.685141309044975
97 1 1 -2.429825994938901 3.213253173456471 2.419897324103840 1.202545360471532 -0.643570842618283 0.964243687816350
98 1 1 -2.412959280517176 2.496214515566224 3.154320036724997 2.069807189010997 -1.122766051022002 0.904942124664358
99 1 1 -3.154762913461964 3.242415483116927 3.120726439707123 1.680393919735980 -0.675754334281782 0.491624133983737
100 1 1 -1.796693289754638 -3.182980543888234 -3.198429888988045 0.856756421446381 -1.422346950173598 0.417025805565465
101 1 1 -1.083093681243360 -2.506399477365477 -3.157967850446914 0.101012957431299 -1.398373961984640 1.316538025558188
102 1 1 -1.088937228664117 -3.266577318398843 -2.397702296794487 0.089756323679173 -1.407189523031963 2.438773902320610
103 1 1 -1.807298506458076 -2.517920586592695 -2.418444329313436 0.107681053305189 -1.437638169179802 1.395955935314500
104 1 1 -1.834259743941949 -3.240669790825008 -1.726127066396609 -0.283804941677709 -1.206283862000374 1.389095761495498
105 1 1 -1.136715680997524 -2.509342716048238 -1.673617648292766 -0.844290319103616 -1.029739687694124 1.969974956273579
106 1 1 -1.127327795920218 -3.188637405638585 -0.973469339763037 0.144230534201385 -0.387015848076329 2.518723433575672
107 1 1 -1.901536263327791 -2.488774740026660 -0.994183179196324 -0.586783922005176 -0.362507699038637 2.164239628466116
108 1 1 -1.876303112138351 -3.159495458467907 -0.330461944251983 0.101727575579348 0.028540647990929 1.410073455803890
109 1 1 -1.110055153660995 -2.438826366642481 -0.329098764875334 0.243997137792086 0.067381480604707 1.297204944176209
110 1 1 -1.151736845744308 -3.157622442078815 0.370186436303368 0.052319661202397 0.043391050456435 1.159267032931129
111 1 1 -1.914404121714585 -2.453681954350523 0.317362309895863 -0.052746810077075 0.023971517480614 0.589038339398704
112 1 1 -1.805716446631848 -3.167549397534264 1.025348904851701 0.723788374014961 -0.187452036965980 0.782294680650458
113 1 1 -1.090178594881121 -2.495083516262413 1.010352064481735 0.494870847868991 -0.606795001838105 0.497913817128990
114 1 1 -1.068670362763007 -3.198310482797250 1.746306033512929 0.976199299337416 -0.687993415580391 0.816045071370243
115 1 1 -1.806878347935488 -2.446570348614777 1.710866565367160 0.692523592425994 -0.063414505084763 0.608391965843799
116 1 1 -1.791954889357073 -3.129012954161165 2.464095904674616 1.545771679348924 -0.402940245484431 1.033151341334171
117 1 1 -1.058932346639541 -2.461502263123388 2.443241657102532 1.112351337300569 -1.241459512375266 1.248016130459234
118 1 1 -1.098762534157146 -3.240613803111131 3.152880077250241 0.808672934328276 -1.643874250698084 1.000198362026162
119 1 1 -1.812079309549115 -2.479207334892538 3.141733971637878 0.986108122518141 -1.027840351115420 0.363886891193131
120 1 1 -1.793494467333620 -1.725224586977828 -3.170976964650042 0.227777091553797 -0.599221706906040 0.487900252069100
121 1 1 -1.072532770259124 -1.031362841289825 -3.196870705220654 -0.108579998475631 -0.781554809071091 0.251717849039707
122 1 1 -1.128936292104236 -1.792664301353761 -2.461746504007463 -0.691623986819473 -1.230349243316685 1.013962452570574
123 1 1 -1.784540431252520 -1.058238889350892 -2.426474265233510 -0.406184571598935 -1.127026695544558 0.833651910747247
124 1 1 -1.892845831470098 -1.815664024494407 -1.693899215637595 -1.436564913327097 -0.769547922560172 1.652646436281320
125 1 1 -1.102090160632227 -1.039985819763933 -1.787865930495986 -0.190250529721401 -0.351518735627851 0.478161301120396
126 1 1 -1.128416944942467 -1.729736036232043 -1.073845309113631 -0.185545418105761 -0.364656869657317 0.564397398528958
127 1 1 -1.872408425530654 -1.028697648699654 -1.076529188498403 -0.377330782099372 0.092072287876791 0.743074975338598
128 1 1 -1.866631300591129 -1.759254684177766 -0.389064620392361 -0.101627838090018 0.424164637953833 -0.007998202499126
129 1 1 -1.098783166768642 -0.978508327029679 -0.410235002137945 0.557971037102124 0.413453619776934 0.245624677652379
130 1 1 -1.113006835359439 -1.730499500899021 0.296563850070558 0.106940846015274 -0.061698979962161 0.191178023038936
131 1 1 -1.798822417342433 -1.006966006480285 0.290473647673172 0.149118110894776 0.189750826204069 0.183839772199116
132 1 1 -1.797208107220337 -1.724104154297896 0.999324819378342 0.437235312460294 0.353836794224509 0.470826845790218
133 1 1 -1.059373031667365 -0.973964528139785 1.003359373412846 0.842759964089870 0.121906587861729 0.709585869083750
134 1 1 -1.063688524468768 -1.729237996505586 1.727761172716643 0.880302028709827 -1.004984822863906 0.913257209978828
135 1 1 -1.747439093627574 -1.014149587830721 1.752059126884029 1.237581412007157 -0.289080678030867 1.073166939667698
136 1 1 -1.759523498130688 -1.734175492570876 2.480188647464781 1.525183073931452 -0.505790449989867 1.164834820861138
137 1 1 -1.032094767517318 -1.012180471437063 2.421065716227985 1.232847794415538 -0.589509625696447 0.564349428242754
138 1 1 -1.062018442399616 -1.782124286041760 3.145537335090963 0.649064043582502 -1.588720075251979 0.710227006985969
139 1 1 -1.749093761194733 -1.000993683195659 3.138993837837495 0.703183751149354 -0.443173537588974 0.210332119259204
140 1 1 -1.776297829741947 -0.297639896842191 -3.217756590023229 0.135157650855347 -0.362014729555379 0.472203494425687
141 1 1 -1.028217513078300 0.362313021866223 -3.172807919099338 0.465140165915732 -1.043127275823944 1.075229259769276
142 1 1 -1.059611747691950 -0.336080669627870 -2.513318993508708 0.417346304617440 -0.709867801428450 0.524091138441999
143 1 1 -1.769224488654760 0.358842088489022 -2.464286034144631 0.561913836267135 -0.849483234884109 0.863410153427464
144 1 1 -1.839970496111990 -0.355213914732865 -1.785410661325556 -0.094322394768131 -0.511773375333404 0.944639359227801
145 1 1 -1.064239161790979 0.353416893392263 -1.742880305644313 0.235992516311956 -0.260796884319800 0.716099648510175
146 1 1 -1.091411919963179 -0.295054733574552 -1.043831088226189 0.482047304445916 0.086050067079989 0.548837682613388
147 1 1 -1.827583524111674 0.327387922121423 -1.051358949752912 0.150884865952303 -0.441652527765213 1.116492777945667
148 1 1 -1.827033261184106 -0.325573523921691 -0.401866675448629 0.149961988848455 0.032705033525862 0.430886177688428
149 1 1 -1.028565477998139 0.387782312659004 -0.341358286726916 0.974973196456437 0.164553695908343 0.907026500346476
150 1 1 -1.064705639828049 -0.269831928719883 0.320621560688489 1.031206414495911 0.552716513783725 0.788431924390496
151 1 1 -1.761490069914558 0.415865065065041 0.347497332199340 0.595230464312733 0.322485155924568 1.024980872598887
152 1 1 -1.769504009849975 -0.267567198623914 1.024739704701043 0.742342414844651 0.427291788019615 0.920214314552277
153 1 1 -1.011982896326940 0.355270006333035 1.057808536009251 0.817596790123640 -0.385424652305633 0.951467002422523
154 1 1 -1.033595390161041 -0.299001324207623 1.758988853330163 1.118798512828239 0.041011614300951 0.767034908368246
155 1 1 -1.753392814481629 0.399290072355243 1.765524183206476 0.901753704819866 0.180720099840770 0.746419545354123
156 1 1 -1.738983612077356 -0.281571140525251 2.446995498706230 1.010835283195287 -0.031665043662025 0.438866713677304
157 1 1 -1.025351750172605 0.359450220580144 2.434914595718390 0.656720505050303 -0.796958706243975 0.154564987426386
158 1 1 -1.019173328113248 -0.332975531217503 3.167563396280531 0.528020575611357 -0.797344809239517 0.490815847980435
159 1 1 -1.757746468185031 0.413338993544340 3.112016590448104 0.660650322919825 -0.564676442942732 0.410657947032566
160 1 1 -1.703350881098299 1.074473327392022 -3.181985720139931 1.457310773092108 -1.098685368623733 0.493900596051250
161 1 1 -1.002396693938348 1.688233186375461 -3.169717244312202 1.471921379688723 -2.084167791980903 0.643204388837453
162 1 1 -1.030716552201099 0.991726922574088 -2.471047291970826 0.741067455269092 -1.212764284313770 0.337599132940496
163 1 1 -1.744228832751276 1.727995809606448 -2.403373717551672 0.909427222426114 -1.391090629742313 0.891540791453342
164 1 1 -1.759167537824658 1.004495361110587 -1.729031941594136 0.604835801558172 -1.023688753638394 1.222543331444245
165 1 1 -1.042692565887854 1.665438735938647 -1.643940701744357 0.777510596268161 -1.681514137445996 1.798591991613532
166 1 1 -1.050738882578802 1.006388623647804 -0.984256575769258 1.053463782555225 -0.621174084022590 1.208347811391087
167 1 1 -1.758742996416701 1.759222519982865 -0.985586149476978 0.864594897407066 -0.729188683328178 1.390351898772736
168 1 1 -1.708458802531678 1.090260988841041 -0.339500950234659 1.108070784810409 0.066220010245007 0.762986479024407
169 1 1 -1.009417864384355 1.742156727562380 -0.277625451880393 1.328091870492090 -0.731403481567203 1.434886533429048
170 1 1 -1.021176978988595 1.020468199587524 0.366047751578270 1.103575489203426 -0.749318250104282 0.962940007710723
171 1 1 -1.781654166816423 1.810742212143372 0.355043053560718 0.746343550669483 -0.210556598261740 0.695429964589374
172 1 1 -1.746231316326788 1.103702424403938 1.034929315770604 1.116082872794498 0.264057991914513 0.803643354361509
173 1 1 -1.062059727862338 1.697464855444141 1.089984524490303 0.580579447109021 -1.346257994028175 0.890179261190431
174 1 1 -1.041747537742707 0.994185754559163 1.768716164240717 0.631249568729191 -1.868553151350980 0.525256612502253
175 1 1 -1.770564447023973 1.784404167311741 1.769945129123949 1.135046437855197 -1.042627537826064 0.823595630658754
176 1 1 -1.731702347892247 1.098122689791432 2.433328942097981 1.196477982546584 -0.814302075419551 0.481994190548845
177 1 1 -0.985154180898515 1.747306806797177 2.505447962147894 1.750907763140332 -1.278160341538103 0.988353534035971
178 1 1 -0.974181536626047 1.015426541752708 3.198601498243547 1.494962183204510 -1.766641961167031 0.722957952258134
179 1 1 -1.687476712723114 1.787869777964967 3.210956748012114 1.958737049774194 -1.180537470689536 0.775069826818311
180 1 1 -1.741881776820102 2.426888078679308 -3.132050274994771 1.383917653337189 -2.091208729206669 0.914731038910239
181 1 1 -1.093770303455273 3.125349916976135 -3.135057547425443 0.460806234091670 -1.811937474864793 1.496700081734242
182 1 1 -1.064782398878958 2.392627260222191 -2.388889620596840 0.313639192915048 -1.333832941894808 1.790994458960934
183 1 1 -1.797491987427276 3.130048385987959 -2.401630346938419 0.060379073823027 -1.537794928278577 1.246816901382553
184 1 1 -1.766999137897722 2.383909173422630 -1.669027789610997 0.492981091426021 -1.767687063087937 1.794066258319309
185 1 1 -1.087480185212537 3.113062943086757 -1.664937159673279 0.036065349090535 -1.248167932201685 2.440831760285182
186 1 1 -1.053195405807769 2.437734546230352 -0.954364568063591 0.639474437627167 -0.554407595326989 1.697207347012078
187 1 1 -1.822568128092344 3.177033054594038 -0.998238377643104 -0.135536260483583 -0.431466798831596 1.520849803966657
188 1 1 -1.809968902892188 2.482677367078684 -0.310478908766565 0.417802578546642 -0.252524358291842 1.106720923247465
189 1 1 -1.114877224709712 3.179778774366904 -0.266438786575258 0.385662392611320 -0.315109272513983 2.339941917911224
190 1 1 -1.076445156175651 2.447595516153918 0.416035024781711 0.726140993309742 -0.829305509803590 1.602043896075428
191 1 1 -1.861143541193890 3.204644586302585 0.386151598932827 0.192636034144931 -0.037646720980925 1.391133765096382
192 1 1 -1.805306401866276 2.495487354501453 1.090032445196969 0.612759590204313 -0.434597969967193 1.366646768273995
193 1 1 -1.107805383183104 3.125109278624072 1.052841695073448 0.603344464583196 -0.745322444525618 1.440182484432297
194 1 1 -0.983968201848447 2.410177667258405 1.803781773656484 1.169250106617683 -1.663019827127605 1.107364497751963
195 1 1 -1.751601026700739 3.146117746616130 1.770407966440779 1.103848348497828 -1.031267396353625 0.917092509655161
196 1 1 -1.685331476911657 2.467278020879044 2.504929638837651 1.813166078712983 -1.023085771569866 1.081551120059971
197 1 1 -1.041415173066499 3.199827879332219 2.486772487273273 1.705449888293602 -0.837641275664847 1.303470987788336
198 1 1 -1.012536100525104 2.374909273691558 3.196570876544182 1.941980278898606 -1.975414180131119 0.963381513312546
199 1 1 -1.776274062403975 3.215744304836437 3.202682230902556 1.716430656146816 -0.766181546808128 0.951543822894997
200 1 1 -0.366902316318399 -3.204462186111473 -3.140314250349979 0.437848356514990 -1.342096119986957 1.718292011671882
201 1 1 0.397741277844327 -2.427629037786041 -3.233361047959333 0.249356770230677 -1.242018533337943 0.531918751098495
202 1 1 0.407093193581878 -3.147323416615626 -2.436037117121006 0.727185595967028 -1.285793433235925 1.456620083461425
203 1 1 -0.378122154446564 -2.438085644027713 -2.446064650272522 0.162272836288819 -1.275182330411733 1.214821044287753
204 1 1 -0.376363793731240 -3.171087821110755 -1.705982875729249 0.133931779693105 -0.639287380383064 1.659283367705108
205 1 1 0.328122967675950 -2.464524156559320 -1.780632060023827 -0.553180803234310 -1.019655924262473 0.291861618252920
206 1 1 0.356949393863204 -3.151922508724530 -0.964075109208610 0.096880495279897 -0.567378548896421 1.582257075536902
207 1 1 -0.423380176855038 -2.429776943478780 -0.998911726982744 -0.085783280436959 -0.698261019055095 0.601987307561263
208 1 1 -0.430026189715707 -3.190584748356595 -0.281602500936131 -0.154398316951429 -0.477825920125903 1.839263402925027
209 1 1 0.348242120181188 -2.438918600980552 -0.380372540842394 0.166148167690868 -0.717321414577225 0.478344907364389
210 1 1 0.345304064842281 -3.183146743028555 0.327183113167828 -0.055907496664201 -1.008149688230302 0.634016501278618
211 1 1 -0.384180228268403 -2.455148993434469 0.309059584954972 0.328161473697700 -0.834485367350994 0.277655128332715
212 1 1 -0.342187207034360 -3.192277938983637 1.049668510533572 0.500880453704477 -0.976671638017628 0.944643083975263
213 1 1 0.383191949216668 -2.455037343760710 0.949944974246221 0.953082014563810 -1.063945958650496 -0.055556715658110
214 1 1 0.347081379511070 -3.134196741426536 1.740145925719281 0.841875873148502 -1.005544631493408 0.818020290453501
215 1 1 -0.353351589110669 -2.424887247351653 1.684821600556533 0.913582106358179 -0.941770839504234 0.086618856912435
216 1 1 -0.390266871186735 -3.184848555386785 2.480885405554242 0.732334384862901 -1.469707281597229 1.507672522103118
217 1 1 0.352310651839053 -2.466124880595209 2.418816979418221 1.001646700588491 -0.905763070126593 0.427460352079587
218 1 1 0.377703062303840 -3.172376702577652 3.155226946518552 1.129291974846474 -1.134632915311960 0.832048436246112
219 1 1 -0.367356742164948 -2.505030199490320 3.175053801085468 0.656914570312364 -1.543218107375311 0.688477165550019
220 1 1 -0.375064838199330 -1.711022779432193 -3.208427820832016 -0.308630863623185 -0.656121894677496 0.303555712805682
221 1 1 0.401330909418041 -1.022960260159419 -3.251818135206249 -0.001900457471866 -0.650346831223986 -0.253722982569698
222 1 1 0.351123510517060 -1.764322805321389 -2.550390620078622 -0.477503632699439 -0.825908337583341 -0.232829527170443
223 1 1 -0.368038426008842 -1.044270496738992 -2.519754281225209 -0.067626236259549 -0.986784550014771 0.036808363596722
224 1 1 -0.411857770458521 -1.742755635736227 -1.774502351404085 -0.531758575488507 -0.534583128335151 0.327067010354192
225 1 1 0.394398643144680 -1.067336458171709 -1.810694973073823 0.025558744858845 -0.273552083045243 0.119197686940601
226 1 1 0.370762563182867 -1.747629526461009 -1.064895682724627 0.118615251105601 -0.493211257892860 0.759586570000103
227 1 1 -0.374978899795520 -1.020427266290159 -1.071705503310831 0.430493573187142 -0.190885624123479 0.499872642155676
228 1 1 -0.390563298575266 -1.702741520772920 -0.380868576107135 0.079025027403351 0.202842998210007 0.367510168827660
229 1 1 0.365565247323493 -1.082586831162725 -0.418746409712286 0.297410648614906 -0.418650925245803 0.226389334026008
230 1 1 0.347209181856330 -1.768741647240590 0.226004787608950 0.343778852573966 -0.851727146801790 -0.245571731132052
231 1 1 -0.382484993013557 -1.073221654870602 0.294120231818457 0.559929409785668 -0.745772936532198 0.133943614062729
232 1 1 -0.381710535009835 -1.741110183784366 0.959663024370267 0.322993052273279 -0.850631055781328 0.198400368047618
233 1 1 0.404073480356723 -1.053455067356041 0.984768370007215 0.976846750103243 -0.389180807840491 0.015025883526981
234 1 1 0.327342416459573 -1.765897891841308 1.703376463605964 0.875201922158576 -1.135838064947618 0.522303107120729
235 1 1 -0.308972753859653 -1.061492914821826 1.739480220235915 1.310521988622525 -0.962521391725105 0.357525369039664
236 1 1 -0.394870602812013 -1.775281799464678 2.472066580920531 0.634949444918551 -1.197981049669287 0.922798665169321
237 1 1 0.444088518153977 -1.052286530877462 2.403667913759858 0.452504504324902 -0.543513551731636 -0.513706914931704
238 1 1 0.400357500724040 -1.728878876951276 3.089524252390289 0.502449958312201 -0.998968724974829 -0.260958380337808
239 1 1 -0.323905928376643 -1.049682153913296 3.175237015028105 0.224605430663583 -0.833690696530635 0.120287270093773
240 1 1 -0.301853143563798 -0.329155869892026 -3.231060104845910 0.292500365647224 -1.108658323907916 0.189304633175784
241 1 1 0.446418132489390 0.319034213249047 -3.207127704052765 0.735227516352835 -0.723741891253566 0.599938561064846
242 1 1 0.378035896861587 -0.369712579888907 -2.513692126012704 0.102790284793825 -0.460852819619494 0.480774744455852
243 1 1 -0.335848326366840 0.304313776384521 -2.523600800124043 0.032063872818892 -1.031612414894630 0.227034331653218
244 1 1 -0.392287529028339 -0.379223765822803 -1.770574548603732 -0.530112060504725 -0.738058650909238 0.378445361392520
245 1 1 0.386766767398832 0.255734641818957 -1.759536530698995 0.857819869319812 -1.287190160057961 0.938937342918940
246 1 1 0.377717477238434 -0.386767157344026 -1.074754678727984 0.624756492267049 -0.248579511038650 1.011240492943666
247 1 1 -0.349166772589200 0.290556817254578 -1.036722973586548 0.933125706721443 -0.586548672724802 1.043144948619843
248 1 1 -0.345468452392905 -0.357444213631462 -0.377804788037895 0.351165357777122 -0.070077712414581 0.806964026703341
249 1 1 0.404685155040136 0.288004559409846 -0.345831033429273 0.672735934441751 -0.948418172479780 0.926786719738970