ITEM: TIMESTEP
60
ITEM: NUMBER OF ATOMS
500
ITEM: BOX BOUNDS pp pp pp
-3.535000000000000 3.535000000000000
-3.535000000000000 3.535000000000000
-3.535000000000000 3.535000000000000
ITEM: ATOMS id mol type x y z vx vy vz
0 1 1 -3.165665071318373 -3.156509215181652 -3.227886674071486 1.622902502199391 -1.102900798665608 0.294976801761324
1 1 1 -2.527230358410741 -2.453029471082353 -3.250232939315797 1.146834333024895 -1.226114696403541 -0.075620328117036
2 1 1 -2.483054762260941 -3.202783911709547 -2.472394451575022 1.206248618571338 -0.969096151433992 -0.178904917360082
3 1 1 -3.187040963748978 -2.491116729100793 -2.503610525143908 1.286337802190110 -1.184960472916247 -0.217896209507960
4 1 1 -3.198370110132858 -3.225817603153994 -1.776735847653297 1.298755307397401 -1.017564256077967 -0.137717510246198
5 1 1 -2.578587067793856 -2.500791309875233 -1.739377434096401 0.368333235643781 -1.163409185399010 0.546574485531992
6 1 1 -2.565844650100901 -3.125855480703403 -1.042144868269167 0.212289217955406 -0.127870104139743 -0.163202637588534
7 1 1 -3.317436134178673 -2.491564988870915 -1.056132518931088 0.442469993388159 -1.166138752873398 0.025989404159916
8 1 1 -3.293843616809808 -3.106736695629551 -0.394698251039883 0.585705995547505 -0.286912695450718 -0.489294180527835
9 1 1 -2.636848571254240 -2.434813601447140 -0.378596034040098 0.265993848563098 -0.068800920938117 0.118769865461998
10 1 1 -2.610324002914103 -3.119959581292501 0.281810796019552 0.562223431724624 -0.399689916427059 -0.168923465563652
11 1 1 -3.319734899353099 -2.419188186356159 0.227841496691699 0.945717430997505 -0.611589862207641 -1.037930885307372
12 1 1 -3.274995905993673 -3.145724588709771 0.926455598562057 1.105108817151043 -0.707356980175655 -1.001327291936965
13 1 1 -2.598676148437756 -2.418885363763795 0.921223832324133 1.092886092715141 0.248327775143782 0.078556155022533
14 1 1 -2.485824941321487 -3.128935881457445 1.650516760754980 1.474888283433234 -0.174214002839596 0.166172937773331
15 1 1 -3.246019006835593 -2.407172663531366 1.620370552171795 1.377734348222624 0.698458149528860 -0.581359872775425
16 1 1 -3.154031873335926 -3.121540222900199 2.361743353443077 1.847148633238584 -0.341098890133316 0.145271568186338
17 1 1 -2.516939097379352 -2.404211518291354 2.422033704773744 1.183635397267691 -0.094486221369267 0.947265034053537
18 1 1 -2.474868247072764 -3.132308233018954 3.146501795096073 1.577312148174354 -0.640439423798704 0.960489534436521
19 1 1 -3.197435231708022 -2.411857031838783 3.118298504652869 1.450786804857964 -0.428644726106487 0.760773397499980
20 1 1 -3.176076278740012 -1.706016306421507 -3.212213665566682 1.277816910352847 -1.359254171111629 0.153690832919706
21 1 1 -2.525274175009947 -1.013559489418384 -3.186494991006225 0.828467381740870 -1.095639709485223 0.239594980075352
22 1 1 -2.525058582583359 -1.779493085094896 -2.474690584193889 0.688673696283674 -1.077797604807928 0.354809428081809
23 1 1 -3.255275496164245 -1.019387765390441 -2.441058807099311 0.681214427863233 -0.820116553030749 0.529242030660272
24 1 1 -3.283167962780219 -1.777821557861914 -1.724064498609108 0.082999125703354 -1.034858387728585 0.333167669812686
25 1 1 -2.593562728909882 -1.085575439186815 -1.744775150026509 0.025621308415349 -0.800924088259963 0.178058957238642
26 1 1 -2.646113513065118 -1.767551734741239 -1.024295042633932 0.259674527729455 -0.445477627659434 0.516336515384558
27 1 1 -3.344736110210898 -1.011652406179231 -1.107917064108540 0.776962377020401 -0.660881669367787 -0.268225160501497
28 1 1 -3.339456334636619 -1.696708859685243 -0.433906907266975 0.897067124202130 -0.089699956581573 -1.010777880651021
29 1 1 -2.624857102348812 -1.022091756181288 -0.438101693981950 0.199920250298944 0.256661699905222 -0.513489822499937
30 1 1 -2.638818661828032 -1.724171887424913 0.226615179485716 0.607368439753660 0.474017176177608 -0.672719580900782
31 1 1 -3.345612794205558 -1.025510248910880 0.220905167085456 0.353081997809401 0.125359706976431 -0.744303413845304
32 1 1 -3.337319696619001 -1.703210478679608 0.890850090003057 0.762411173557152 0.154251954475148 -1.011565363379015
33 1 1 -2.543807717148049 -0.957758962315186 1.000491275750895 0.550775904533445 -0.082396159150534 0.097585668604445
34 1 1 -2.553256302700607 -1.729883201321234 1.689077975563381 0.894765274196805 -0.181267974069804 0.658407528216892
35 1 1 -3.243423337677997 -0.949140179850264 1.704020298978554 0.658952666895680 0.201569196210589 0.423552969977703
36 1 1 -3.202783258152119 -1.686038334358826 2.454608404221005 1.023463756318831 -0.312972814002714 0.955366950605350
37 1 1 -2.465936648734163 -1.001433460414764 2.487029814811926 1.202395137212471 -0.620380229518494 0.647757495485935
38 1 1 -2.472994437824146 -1.727589154703034 3.124571581935649 1.356857052805683 -1.062510307717427 0.406206620620015
39 1 1 -3.203632877831678 -1.004301404815371 3.186369961448101 1.121368084656424 -0.924767953613137 0.887194796455940
40 1 1 -3.186310769096370 -0.259620621141315 -3.217568076268408 1.222481650228090 -1.042884977706692 0.076175377737642
41 1 1 -2.441663085715727 0.402968919001051 -3.237842059535513 1.098531850466583 -0.590132743210861 -0.051133108742251
42 1 1 -2.505241117725172 -0.282640514451137 -2.476395859982379 0.608556425190917 -0.614392734941705 -0.226325427568259
43 1 1 -3.117794153189859 0.414121992038040 -2.489254900422167 1.413513616116396 -0.427936977565435 -0.281581361038184
44 1 1 -3.272451369677982 -0.342177303810712 -1.749638131145017 0.726695053583981 -0.821064469365121 -0.355685363124445
45 1 1 -2.560637225552949 0.340939199327830 -1.759744057073161 0.556013683874744 -0.509848646720313 -0.084193203317567
46 1 1 -2.583397610519208 -0.283303394726342 -1.099602786744752 0.244292857070123 0.098839216547512 -0.318854959776691
47 1 1 -3.251174104593269 0.367030686973977 -1.068961502869052 1.049158708853852 -0.750983271097231 -0.307845795908013
48 1 1 -3.314062361090298 -0.297727395622586 -0.379258420469658 0.220733675399854 -0.350607997590018 -0.332663206916658
49 1 1 -2.530016137976183 0.382443303960566 -0.367446546668164 0.676244344559714 -0.230441339340659 -0.716272826607345
50 1 1 -2.530907098891072 -0.258317998397427 0.274947856965588 0.566664511425116 0.109002566133449 -0.853602212693975
51 1 1 -3.209008228950563 0.456139269502166 0.308532323742838 0.977567947962342 -0.106441483022417 -0.707568080555942
52 1 1 -3.236360598700570 -0.206321699715481 1.036252943440943 0.987814172201788 0.451527278321795 0.071146352041591
53 1 1 -2.489110599789062 0.430397115122828 1.026121449742185 0.572909698679580 0.029552222472635 -0.212601431302902
54 1 1 -2.447116785421295 -0.303720549060335 1.802582931732021 1.399565051390653 -0.271691004279724 0.720930745851737
55 1 1 -3.170007299565992 0.409252701043649 1.772132618060242 1.138878944132341 -0.134916456384698 0.111157436640845
56 1 1 -3.190309243073015 -0.271315316945904 2.531670878391529 1.260870487842848 -0.483074452320418 0.877924570693197
57 1 1 -2.430465170514482 0.396402029894060 2.396767172000327 0.856104578145477 0.143840735001494 -0.061449189584818
58 1 1 -2.450422774676781 -0.295275919990658 3.094475938401661 0.972056613186269 -0.994713069240155 -0.259603323540571
59 1 1 -3.140589512985035 0.423649846943475 3.109175144441817 1.395281188022363 -0.841734138089724 0.099827398913761
60 1 1 -3.125447967672164 1.098751493791532 -3.236872378141130 1.535406773084153 -1.241696749313454 -0.219373343948020
61 1 1 -2.406979295762842 1.778486489210146 -3.167794798782126 2.412621217740940 -2.203236509625269 -0.089784743303455
62 1 1 -2.460056699781821 1.042923149767615 -2.455102749008625 1.554414766639480 -1.385081141291160 0.069562868015061
63 1 1 -3.141213847432720 1.817128287485847 -2.422129576930231 2.110919725708753 -1.548614269333091 0.338114011723054
64 1 1 -3.198403125457247 0.993411328019878 -1.750396584110844 1.519826513778874 -1.385967578246601 0.138095795808796
65 1 1 -2.481858337224983 1.719221204341575 -1.687942868765307 1.496280182197555 -1.712004301525224 0.013651857299839
66 1 1 -2.509286410941865 1.056674025798376 -0.997475025676460 0.956588291968095 -1.003312230229587 -0.193011197590184
67 1 1 -3.209629062323616 1.731950439293518 -0.992826173953205 1.170450352359098 -1.506885256630616 -0.012523874211573
68 1 1 -3.235846007093822 1.094535254684041 -0.342972117810531 0.849831914562136 -0.627204800556522 -0.672827641407880
69 1 1 -2.441723774161218 1.765180524737503 -0.324596054661351 1.341085868975969 -0.795720237725643 -0.853184183958111
70 1 1 -2.483783038258324 1.103444978978158 0.330704362736101 0.897961364956890 -0.217450221539506 -0.708521993900463
71 1 1 -3.229073178365268 1.799841097103073 0.325764786944825 1.026314183956493 -0.839629381047089 -0.811501825470393
72 1 1 -3.198541712646533 1.120755294347618 1.023997747449443 0.841743255494134 -0.449293079785264 -0.616827182458439
73 1 1 -2.483585307837903 1.771643340301388 1.011782248894035 1.443842922063227 -0.344574498019448 -0.324581358134666
74 1 1 -2.431210914767811 1.093586915954825 1.710524435892489 1.787049745376474 -0.212627246536800 -0.295575775594274
75 1 1 -3.188678356892385 1.799470866157912 1.731567944882451 1.572084323002026 -0.857876440743450 -0.207041967154942
76 1 1 -3.122645835458558 1.085771681992422 2.399169757331186 1.690457184667168 -0.680384024424976 -0.005377183853034
77 1 1 -2.404652873685842 1.802061288376382 2.466338637664179 1.609497354528529 -1.116896023564197 0.547692530345599
78 1 1 -2.415383209241152 1.103938579661124 3.153426409268345 1.141789137741422 -1.317709748750479 0.660272572162338
79 1 1 -3.134408661332616 1.814193192252660 3.138777485383176 1.832176636766039 -1.388288244961194 0.206873034288564
80 1 1 -3.142087095762270 2.521625687616479 -3.159764139884946 2.009977788847303 -1.243554344461293 0.691140557534352
81 1 1 -2.444013741534407 3.211055530935276 -3.170138948257674 1.927362738767048 -1.341872186575637 0.293828110504082
82 1 1 -2.453292274105684 2.448465117945434 -2.395713821838688 1.566513855568021 -1.546673524209723 0.169164830112663
83 1 1 -3.151767058885089 3.143943053474413 -2.441746403235684 1.686534299820330 -1.265332040540864 0.223986780488543
84 1 1 -3.215936343079223 2.379282854922110 -1.654800603110927 1.262089612860893 -1.931474486131722 0.576540794665121
85 1 1 -2.513227435425483 3.109352059554529 -1.671347559799351 1.008212682214976 -1.346393946462414 0.523809860364670
86 1 1 -2.493330123057830 2.446103073663126 -1.009496016377795 0.959236755159110 -0.983785674136787 -0.587773826071057
87 1 1 -3.202653127798191 3.149707989858548 -1.037941441237451 1.184068045003517 -0.908572775157234 -0.153273178823007
88 1 1 -3.216308190690215 2.496419087973015 -0.328258582944248 1.198838622626580 -0.652865507687140 -0.484806827992688
89 1 1 -2.586258109482642 3.243687750942568 -0.330029013935652 0.218977783850720 0.283103387810335 0.295032123685223
90 1 1 -2.547371260102251 2.533165189870872 0.343815345276966 0.924164197176038 -0.043214685451953 -0.381839028251326
91 1 1 -3.294186765906816 3.226339430301140 0.318579861019209 0.544916820982015 -0.119077514943799 -0.285483513280914
92 1 1 -3.228968716707383 2.515161245769403 1.041157615885007 1.142778656047949 -0.543032138216888 -0.153008682919934
93 1 1 -2.580270664040412 3.234014949511490 1.027062285221369 0.915124784162230 -0.220774824818220 0.538178249954557
94 1 1 -2.519266546394055 2.512999165077236 1.763798853468734 1.284012377605718 -0.232167810945240 0.525013387295120
95 1 1 -3.218551698298580 3.202617082357973 1.707297042460660 1.382077418841081 -0.584300677705598 -0.379734120771487
96 1 1 -3.166753620113663 2.528257467668358 2.444917694672120 1.567497443422013 -0.864494960472557 0.389833858655246
97 1 1 -2.412509072102647 3.215177663412265 2.425828896317100 1.678238490567977 -0.793898381782686 0.732672385733213
98 1 1 -2.387948932910910 2.484443579047958 3.166001105308182 1.989940632905973 -1.486450681595032 0.955237726796547
99 1 1 -3.130275832439759 3.241607112122674 3.125951442170628 2.049539585415774 -0.867233443930171 0.929998539896669
100 1 1 -1.790043992143716 -3.188361263499582 -3.204776886989758 1.414726938309474 -1.094394796827966 0.054752342053739
101 1 1 -1.086586356838086 -2.514961251219925 -3.142047446806347 0.786482826266418 -1.372671955069657 1.310387583935792
102 1 1 -1.098955073859795 -3.270170979142725 -2.363954930591943 0.447569426569785 -0.970424166701878 2.019203779285725
103 1 1 -1.817532702478459 -2.524947606056903 -2.403765809015900 0.404670659891102 -1.150803113900727 1.223864324044546
104 1 1 -1.850467865055686 -3.239915914961138 -1.716435547910696 0.299066538031925 -0.636445082917306 0.953161226727771
105 1 1 -1.167160053512456 -2.512941908409044 -1.648579502242048 -0.735166292102637 -1.035165440699022 1.712257652739272
106 1 1 -1.135783014812612 -3.178490159759005 -0.945260820438350 0.464360877913260 -0.361244759910090 1.494926035694420
107 1 1 -1.926005581892904 -2.477662114814974 -0.967819945623185 -0.421205141839953 -0.267719728655737 1.702882918630506
108 1 1 -1.884633265986567 -3.141830117708726 -0.322096971624666 0.530771475598491 0.019706151551042 0.687322605413236
109 1 1 -1.115338409692861 -2.421736554985549 -0.322142122486564 0.757175006046279 0.029243722919732 0.322155976160341
110 1 1 -1.160930389405274 -3.141185853595681 0.380872666720420 0.411058156147735 -0.121163403786153 0.893645336810379
111 1 1 -1.922862567086685 -2.432106461341391 0.315698991325783 0.623795191708954 0.291449376790870 0.152574780950994
112 1 1 -1.803330877052528 -3.153019597284918 1.025286498957665 1.077303083356149 -0.169170230945143 0.280025209786421
113 1 1 -1.096249035132607 -2.485781597266530 1.014121940866665 0.583060796949970 -0.375171886523262 0.761813494940423
114 1 1 -1.069644914839011 -3.190275071337857 1.752704893302231 0.666049192964266 -0.236442317969519 0.874453101245661
115 1 1 -1.805029541656132 -2.426951333308193 1.718041631303806 1.363904581662877 0.053956857218910 1.262596468239126
116 1 1 -1.776817143006109 -3.118160039296467 2.475019795608259 1.510110505254739 -0.171089735225728 1.048254883493493
117 1 1 -1.046857340211329 -2.469988724594391 2.457940966731953 1.463129987590403 -1.433992746890937 1.239145240283245
118 1 1 -1.092001407766802 -3.252110353586906 3.161125767137410 1.412130652985179 -1.464925264902010 0.953138179348507
119 1 1 -1.801742158190335 -2.482069090857729 3.141295244999561 1.460599729339643 -1.165443292616064 0.641436778242392
120 1 1 -1.804018975032347 -1.722107781102958 -3.171512186664665 0.598110026598496 -0.838785541087274 0.422588436215967
121 1 1 -1.094235793485020 -1.034965075092848 -3.204521732465798 -0.152117501039796 -1.269937497627199 0.062239485689869
122 1 1 -1.158053691102687 -1.798296960419627 -2.454616766254734 -0.250955920077383 -1.251507445487280 0.851780938127337
123 1 1 -1.811610874878785 -1.065476926695069 -2.424051069654505 -0.073039290091083 -1.193087586212188 0.441156237182256
124 1 1 -1.932926335361794 -1.812008271225058 -1.673032750936409 -0.698887075367164 -0.556632284784971 1.545408476615107
125 1 1 -1.137818673082791 -1.037924728570103 -1.785196357340814 -0.826138717405409 -0.711185687060103 0.556332533110216
126 1 1 -1.145415977471530 -1.719699307558333 -1.076781877544640 0.331723318168244 -0.213235599090547 0.078433294154728
127 1 1 -1.896833432296694 -1.009752651893633 -1.076880482728700 -0.041989131110393 0.210179812634082 0.045638835843386
128 1 1 -1.876028773758122 -1.734251242568567 -0.404646172655863 0.769208364403593 0.480343626042678 -0.588630831617427
129 1 1 -1.109720704979974 -0.959379900707855 -0.420006235997722 0.419533372817681 -0.109468913564539 -0.249424248670337
130 1 1 -1.125457822383596 -1.715800332085412 0.288746453362750 0.459319317254318 -0.433361970725766 -0.043797356982430
131 1 1 -1.812635254743166 -0.988295471283074 0.280762638988053 0.332058266525129 0.045501606008292 -0.217860966849808
132 1 1 -1.802761704264114 -1.700869438948388 0.997120350364157 0.681823413055046 0.226053846967858 0.302491212826924
133 1 1 -1.069409405848498 -0.956189873557058 1.010742779606267 0.391105473231475 -0.113586586043160 0.864876859109644
134 1 1 -1.066235683547461 -1.728667302894369 1.738648894181283 0.961762521304136 -0.855362819413607 1.067149175564466
135 1 1 -1.746900975158613 -1.004603335533874 1.766118297966129 1.113418142440850 -0.565993568082052 1.050240415303086
136 1 1 -1.748069023759250 -1.725881975853337 2.493260685733715 1.299883617683190 -0.604586854069911 1.003811343219039
137 1 1 -1.031117644259122 -1.007999350909172 2.420902971511532 0.751675411416022 -0.918548344921057 0.239348027098225
138 1 1 -1.063158144406668 -1.794867380882016 3.149782616265136 1.037254700763046 -1.594314835051965 0.841289387326549
139 1 1 -1.750672779233306 -0.994401334797955 3.132212394629098 1.195760955780985 -0.689234376802247 0.133608288323736
140 1 1 -1.792485220603573 -0.292639684925858 -3.219709366279703 0.368076492589610 -0.640516752264419 0.326783524757480
141 1 1 -1.038128967330476 0.353880078055846 -3.162432898309139 0.579926355361997 -1.365488924617061 0.815209962909065
142 1 1 -1.075454916221961 -0.333973021937442 -2.509227487258244 0.220552823023460 -0.796509716879766 0.591993344398023
143 1 1 -1.781148981344023 0.352533061570073 -2.460144177854922 0.538749661083566 -1.073874989308908 0.349319300484415
144 1 1 -1.860958433964709 -0.350693463649592 -1.777347543742901 0.183828780475716 -0.463116959124606 0.604615477854716
145 1 1 -1.072047247200945 0.363810948124965 -1.741203124457820 0.477871364749062 -0.388653452358666 0.126213742062303
146 1 1 -1.100472966774784 -0.282011425579506 -1.048206685453002 0.301460709309103 -0.339642998556908 -0.281286924741333
147 1 1 -1.838755617487020 0.329914408879784 -1.051053055860604 0.351564719588498 -0.674787394499387 -0.243026022775946
148 1 1 -1.840094336152694 -0.314693326140503 -0.412451373969119 0.247691826158594 -0.351080339998862 -0.610932713324997
149 1 1 -1.025752646417497 0.399868445852280 -0.343385141810185 1.197576235531518 -0.506089227341741 -0.185645446952998
150 1 1 -1.062684289713422 -0.245064822733070 0.322947474472973 0.989124763884457 0.110689110440632 0.256827188482202
151 1 1 -1.766568600484624 0.435914321324002 0.344999025690643 0.961834855974218 -0.038000140009653 -0.204601178015876
152 1 1 -1.774924987819589 -0.246516806092998 1.029716062373490 0.895937943722846 0.034093563421086 0.385221827046107
153 1 1 -1.018481297831930 0.369567815140112 1.060366261076992 0.759126587973959 -0.104389859319738 0.193693722873433
154 1 1 -1.034432837996049 -0.280119239738655 1.758099696514968 0.690137682144821 -0.170097147846299 -0.042203522383662
155 1 1 -1.752933117268600 0.421340274573085 1.761278313633227 1.112084083180457 0.237117205017441 -0.017784153517444
156 1 1 -1.737190302271082 -0.265899290153056 2.444506188749711 1.076207925237382 -0.215111109753624 0.307944341778854
157 1 1 -1.032179743734482 0.363051171537906 2.429412614254771 0.395219298690298 -0.559047593677240 0.329017753417473
158 1 1 -1.029529456956845 -0.334851329903510 3.168299251516627 0.234476301952907 -1.041750919803484 0.469225235850173
159 1 1 -1.768770142193853 0.416395839278204 3.107757961152962 0.581239043375760 -0.600940572071755 -0.014791399688967
160 1 1 -1.695768718971804 1.060186666750817 -3.185791733690858 1.448973865969870 -1.641367097454304 0.108897519915884
161 1 1 -0.985048695071176 1.662742326700346 -3.173097593966111 1.836585065739535 -2.277148405916361 -0.012462204688511
162 1 1 -1.026528052132139 0.982542463801357 -2.475555633644288 1.231371294218786 -1.340600458121354 -0.029915136605892
163 1 1 -1.738367091564053 1.716205460603555 -2.401409923890141 1.243002090467311 -1.439681460811959 0.053092211928783
164 1 1 -1.759082922564188 0.995908962692725 -1.718926549165077 1.012363388048272 -1.247643123062205 0.453475413945677
165 1 1 -1.036625157005495 1.651845505158046 -1.632363156426469 1.282133430462212 -1.449887593973796 0.449309579769312
166 1 1 -1.042080724883864 1.006901874805109 -0.981226001781844 1.610948753951905 -0.878582968460586 0.011289316095262
167 1 1 -1.756669401708874 1.757587278259441 -0.986986861315958 1.038269999733421 -0.999155093211226 -0.278642766886222
168 1 1 -1.703328123194824 1.103372275481900 -0.349872962491351 1.366755692492373 -0.365282620237033 -0.705629766724437
169 1 1 -0.997235451774203 1.747399933839523 -0.276429617486569 1.682038814788957 -0.499814670204479 -0.106123509038912
170 1 1 -1.016725385131152 1.023254245230024 0.364429161496187 1.383860893607986 -0.626717345737600 0.033418996858713
171 1 1 -1.780809399762052 1.823719727413021 0.347150156377315 1.141450377611660 -0.102451810235698 -0.132711518859344
172 1 1 -1.741229638137911 1.116936066140549 1.031042081552513 1.367721418289020 -0.277010221029506 0.129016231166853
173 1 1 -1.065458926837026 1.698404717932203 1.093254170393642 0.954856999833838 -0.615312625888992 0.484957282558696
174 1 1 -1.044433729713998 0.980454827586666 1.766498338562874 0.857400790859097 -1.251911804086795 0.251746496047988
175 1 1 -1.761973335513383 1.781174339838598 1.777985890968387 1.390005220608475 -1.016346946872333 0.945041093271563
176 1 1 -1.726982130829469 1.095999084424875 2.430020281511434 1.091631600612063 -0.850618756241599 0.293206218401292
177 1 1 -0.972379810079933 1.739894326561647 2.513006886036503 1.069745487367825 -1.239098455957063 0.845278298268273
178 1 1 -0.965907709256863 0.995155229299407 3.203619743946640 1.234010659522774 -1.878374040452845 0.801527947436461
179 1 1 -1.668747046257579 1.776314442159848 3.215305817031346 1.750912136026262 -1.415386251717694 0.629927664210478
180 1 1 -1.728065771911725 2.401420950870155 -3.127740856155948 1.745591942115765 -2.044487003916616 0.498183240930836
181 1 1 -1.089527917583982 3.109511936557769 -3.124012671255048 1.282219490926766 -1.541900886289386 0.710104435611941
182 1 1 -1.066653256662832 2.387435886037522 -2.373602286130201 0.883321602201738 -1.028339184436606 0.892660191028893
183 1 1 -1.805981857320685 3.119830551258098 -2.393964643909306 0.674504215301432 -1.178004861076762 0.695988021151440
184 1 1 -1.769688755835896 2.369090229453814 -1.658343149363018 0.904152130107295 -1.440941995237308 0.336696926809659
185 1 1 -1.098812040477456 3.110823991249486 -1.633286647776539 0.536903023899565 -0.784990105020037 1.854954774308121
186 1 1 -1.051409560838399 2.444316865250471 -0.941709659216424 1.160807550545765 -0.414136517564070 0.619080934727604
187 1 1 -1.839081933915560 3.191341845754251 -0.990098907782701 0.197820260275680 0.087975852071752 0.637926071014702
188 1 1 -1.814822682551093 2.500827836591304 -0.311927389057292 0.928154532902331 0.256252333615984 0.149344533386386
189 1 1 -1.121219031031784 3.192075274752846 -0.243050432637237 0.569648627689885 -0.213741517140378 1.235622359434007
190 1 1 -1.076164779282186 2.457488113742124 0.432578028590086 0.939491952637287 -0.239474994364035 1.128348613830922
191 1 1 -1.866129733910620 3.220079635890549 0.396655156380920 0.793866808963757 -0.097219501291418 0.809090866029906
192 1 1 -1.808510702175021 2.504586913196055 1.103211734175999 0.857536827314922 -0.329139603855825 0.899801885629692
193 1 1 -1.111317929210904 3.135500765971905 1.069566677819490 0.584483408464856 -0.354461625735677 1.086405039753918
194 1 1 -0.980560648938214 2.405633681475303 1.816061824423410 0.642245051098889 -0.885798277110562 1.181600174812330
195 1 1 -1.744372173646240 3.146605424135762 1.776435107347594 1.064096147785680 -0.724942041452307 0.900480046592909
196 1 1 -1.668210979377108 2.465175362081621 2.516050614557994 1.492570809911068 -0.962060914206382 1.046528813876105
197 1 1 -1.025076229743131 3.196203034592811 2.500673571832444 1.466007177760797 -0.990986005664056 1.082069994044715
198 1 1 -0.990836668138149 2.354285462730056 3.203721087995516 1.848862959990578 -1.798039355839270 0.768425092442001
199 1 1 -1.757002032358555 3.210073759763069 3.211720669019240 1.881640234034177 -1.160663010906804 0.978347054728183
200 1 1 -0.365968556706934 -3.214687486984041 -3.117788836641242 1.072161133320559 -1.489155460140966 1.434366608347478
201 1 1 0.394982789345515 -2.434823426035809 -3.232598007417075 0.970920584587394 -1.267440276708743 0.643529586017312
202 1 1 0.407221685262133 -3.156883277646267 -2.421175955684691 0.845521191018264 -1.513993075301570 0.863411473180576
203 1 1 -0.385945985369070 -2.446717219284538 -2.435999554788216 0.635129630009309 -1.428597648955335 1.006927804147333
204 1 1 -0.388425090880624 -3.168550070971591 -1.688335791899361 0.196196054215711 -0.826057725108892 1.131704075244467
205 1 1 0.302464962938741 -2.470065255916670 -1.787591685974980 -0.273447206366461 -1.209007215106953 -0.177779861017280
206 1 1 0.347798003806442 -3.151398956555006 -0.950926859387106 0.413572522392841 -0.917378134043521 0.629935073722158
207 1 1 -0.438577971208592 -2.428291168031818 -0.999247661012388 0.229980074585336 -0.824505824292938 0.155696835326488
208 1 1 -0.444497105839079 -3.183273614710953 -0.264679059691668 0.308967816107744 -0.087794010416680 1.102849647689873
209 1 1 0.338402410039282 -2.434125101176910 -0.386197342520033 0.505587874244229 -0.672431409539878 -0.028746369256931
210 1 1 0.334949695188497 -3.184498066270275 0.324684565545911 0.611380925298057 -0.996582986350115 0.151399997767905
211 1 1 -0.390621517457201 -2.449526906623725 0.301966346588807 0.738086039298372 -0.653663871388474 0.002161120175630
212 1 1 -0.350544682150217 -3.191899798442605 1.055461270758110 0.485639440084472 -0.864817980387513 0.623158406840003
213 1 1 0.389719925437130 -2.457015465107705 0.940697243365898 1.276551200791660 -0.985438716638823 0.020191793382600
214 1 1 0.354079398094772 -3.139215525863187 1.745659085141097 1.155399606528502 -1.167953165923693 0.726963848320427
215 1 1 -0.348351994458301 -2.425463159629343 1.678832478970240 1.204730448322957 -0.918259777117413 0.366960841707200
216 1 1 -0.384412664976521 -3.196526092739510 2.498766025250483 1.222687184334484 -1.500268561712845 1.314595729474886
217 1 1 0.366005751271067 -2.470900821986022 2.411843937383854 1.753794580853439 -1.563374482851935 0.192394200517378
218 1 1 0.393501480465886 -3.181005463353226 3.160933275922948 1.808328084748154 -1.569399657556888 0.741723553047334
219 1 1 -0.359216282117004 -2.520318508920884 3.177165570793923 1.584011670977467 -1.830297546578487 0.798040749291907
220 1 1 -0.397156672295181 -1.713325558710605 -3.216688682937084 -0.068313472199615 -1.320958383124232 0.051249890048418
221 1 1 0.378848533332205 -1.020486456935112 -3.264933385149649 -0.126039276102172 -0.931772729176971 -0.231358093368857
222 1 1 0.322743448375549 -1.761534221135334 -2.562829023187283 -0.140892819668633 -0.785863219035627 -0.309777552570165
223 1 1 -0.392202583205518 -1.046720962370901 -2.523027004618076 -0.220884631364665 -0.929037472561493 0.205484818361406
224 1 1 -0.442284466950696 -1.737931035978969 -1.774053604669262 -0.315048173872666 -0.594269690816351 0.384163985688666
225 1 1 0.373282938187451 -1.059551063690160 -1.813902286447545 -0.168492876259289 -0.754494283183185 -0.099423698349302
226 1 1 0.356842932013695 -1.746198765109080 -1.065619584774580 0.234636472649375 -0.974350300499645 -0.078472935691279
227 1 1 -0.387914456277683 -1.009882779035375 -1.075163652282267 0.103435595023373 -0.507740134488907 -0.244523992829248
228 1 1 -0.402592236589529 -1.683103139083155 -0.389474451512372 0.477284221228559 -0.105446981134254 -0.372980781268150
229 1 1 0.353346623150536 -1.079908946526817 -0.425398479754815 0.418101130094601 -1.008137282041950 -0.182795209048576
230 1 1 0.340112274015631 -1.772417081409680 0.211953842349075 0.827389090825501 -1.211003984206618 -0.410466322820166
231 1 1 -0.395323681625686 -1.073722650846406 0.287305998982410 0.081404626581627 -1.079734439563419 -0.049802980575026
232 1 1 -0.394928398561619 -1.740762212242806 0.955993571094395 0.273511902067853 -0.841883103099444 0.359019972394110
233 1 1 0.405209850230135 -1.051703553690190 0.974897579297651 1.076852488377137 -1.285536267157394 -0.180237158391877
234 1 1 0.334062776728617 -1.772376297963002 1.700249313551407 1.453251128743559 -1.417061510991627 0.250382309710773
235 1 1 -0.306285947966184 -1.068248061269019 1.735400640535863 0.939679165093988 -1.578417803060975 -0.004769955103077
236 1 1 -0.390928854736475 -1.783066700333219 2.476657149718609 1.252902950442649 -1.567381732200716 0.586963632486359
237 1 1 0.434805595629675 -1.048025920836138 2.388760259209701 0.493668093718467 -0.999174221363567 -0.107633162240377
238 1 1 0.393320355812578 -1.736595064813917 3.073349960092965 0.705315438210777 -1.479734153599106 -0.247787963764638
239 1 1 -0.337378499905525 -1.052417281817240 3.164889752840518 0.285652645072998 -1.322109468621602 -0.103555640754110
240 1 1 -0.316882833218401 -0.335166643694282 -3.232735944001374 0.340260689591181 -1.342440798992075 0.386867528081595
241 1 1 0.448382262288560 0.322922627383222 -3.198862667075897 1.110147310157470 -0.778304913887415 0.736130516798539
242 1 1 0.357955867597548 -0.363094730070471 -2.508980461482482 0.024478546329832 -0.829982432197934 0.510921867826979
243 1 1 -0.351248130235133 0.302290647924118 -2.526067028340026 0.299925807265143 -0.879791852128550 0.205889947732906
244 1 1 -0.420732459975950 -0.375101521885088 -1.771536430009886 -0.466498909417174 -0.812451814604831 0.074681171750306
245 1 1 0.393378963759050 0.245735811295071 -1.755884287250670 1.414308764754395 -1.510142065479356 0.020824303428167
246 1 1 0.373574216701332 -0.383852932800696 -1.068783880373513 0.728249142735785 -1.168974680159413 0.276134779522996
247 1 1 -0.343830960011316 0.289000709758925 -1.034012489625068 1.277214890077237 -1.087980160192518 0.012470640483991
248 1 1 -0.355628214386694 -0.349455657498346 -0.376348374765883 0.333358622742720 -0.804743711499934 0.082795963247510
249 1 1 0.404835315952527 0.286495183856090 -0.347108579201426 1.200789337689915 -1.146724459902219 -0.049308898987643