ITEM: TIMESTEP
70
ITEM: NUMBER OF ATOMS
500
ITEM: BOX BOUNDS pp pp pp
-3.535000000000000 3.535000000000000
-3.535000000000000 3.535000000000000
-3.535000000000000 3.535000000000000
ITEM: ATOMS id mol type x y z vx vy vz
0 1 1 -3.159117104883474 -3.151369523037034 -3.232646403370163 1.023861300075580 -0.759561072572274 -0.636470103175280
1 1 1 -2.529764366155892 -2.449535782086902 -3.255015996298757 0.505277116277056 -0.596627429317401 -0.429322323390450
2 1 1 -2.486732605731687 -3.201813920969067 -2.481543735609431 0.494782405659176 -0.977205181185172 -0.745195142881982
3 1 1 -3.181730616708675 -2.491744672316897 -2.516620073384185 1.061922029589464 -1.117976230245590 -0.998770080003009
4 1 1 -3.192455453613859 -3.228178034970012 -1.785094788860327 1.130248218816058 -1.215538041796024 -0.678566907481972
5 1 1 -2.592469724493331 -2.506184653129330 -1.733686106592552 0.383321672142564 -1.626023136727595 0.104952942853945
6 1 1 -2.581103608313487 -3.116379302998609 -1.052514641667818 0.138642662165067 -0.826064098388285 -0.744414381841820
7 1 1 -3.322947099835747 -2.501948259027150 -1.060270640406104 0.926407689968223 -2.036840692555051 -0.561548668192188
8 1 1 -3.303020744971275 -3.102671071628316 -0.408583720165649 0.588483546522779 -1.051108394373229 -0.894969357209389
9 1 1 -2.649130621930054 -2.425504316266248 -0.377529405437144 0.418553487856792 -0.826133658025301 0.111492418552217
10 1 1 -2.621632907502438 -3.116195955442390 0.276645259856233 0.211038220102022 -1.026147448637739 -0.157460124666092
11 1 1 -3.314535679458728 -2.420319550041719 0.211235398202026 1.455382075474624 -1.348421402008722 -0.788961728717687
12 1 1 -3.275662795772384 -3.143724305935322 0.910843449253634 0.895609897438533 -0.745733384585228 -0.669348970019385
13 1 1 -2.593332766286025 -2.402184703377085 0.918164473222737 1.047549262271452 -0.084979530347210 -0.291582221848926
14 1 1 -2.478952189613685 -3.115091482484174 1.651650309946613 1.003247846521820 -0.377913522178885 -0.009577128511881
15 1 1 -3.237966823928357 -2.383268449543411 1.609546801176626 1.337349537125096 0.206242750701045 -0.721763354887264
16 1 1 -3.139622710567796 -3.112871022493629 2.364206854794871 1.715109387271051 -0.464507688898018 0.099527997447797
17 1 1 -2.516968616438787 -2.385158509661318 2.435917096241624 0.625960036376084 0.069428612608375 0.617836217881203
18 1 1 -2.469990324401135 -3.121871487369912 3.155054653666584 0.784708474173153 -0.466665686733946 0.233109024260728
19 1 1 -3.190045135891861 -2.398359933244003 3.124969573267508 1.008457122135524 -0.219439161400562 -0.058254801421117
20 1 1 -3.176476255083715 -1.704611446800799 -3.214647820495131 0.900268873554487 -0.720836553818823 -0.497839166528375
21 1 1 -2.537796720962711 -1.010070065188311 -3.185910551100187 0.368495137137878 -0.651464475272023 -0.172588247421216
22 1 1 -2.537377219536764 -1.774149402717719 -2.468943087305961 0.385795766721696 -0.762426712896247 0.042433493141423
23 1 1 -3.267520260058180 -1.008620336533231 -2.435762591104992 0.651224057256628 -0.492410565778500 -0.102818444846507
24 1 1 -3.298916229791913 -1.782894528069776 -1.719995479263655 0.516588427894115 -1.642685218647512 0.001283228042767
25 1 1 -2.616093107639865 -1.085215568426506 -1.742086092014641 -0.012697402132792 -1.100089724915162 0.058801907521726
26 1 1 -2.655420490839957 -1.761721355945759 -1.026972258265219 0.803322938786039 -1.156978876407688 -0.317326464885892
27 1 1 -3.344864883033459 -1.006009905576815 -1.108723114323664 1.379978617221213 -0.974042031958583 -0.248656976641549
28 1 1 -3.341875354152629 -1.688325529391659 -0.449312585817067 1.066487611608618 -1.111324601320830 -0.823195701937945
29 1 1 -2.645921865787332 -1.000761398631378 -0.450737213360836 -0.190816288469499 0.133972678379021 -0.602659707059774
30 1 1 -2.646281165414838 -1.703366884661351 0.213520384984852 0.307426323117638 0.104120572533052 -0.685330298237790
31 1 1 -3.357766540058591 -1.013258730296456 0.212928069566493 0.711269010419093 -0.280648264593242 -0.382247229496492
32 1 1 -3.337586178983754 -1.688964790126796 0.872836935183110 1.177572362385731 -0.173323630875235 -0.925596250617490
33 1 1 -2.551812114603824 -0.936540282488723 0.997373552699524 0.367142789540778 0.402515837040146 -0.423408346998792
34 1 1 -2.557929687587503 -1.711586581586010 1.699531110452872 0.515557290579524 0.135662229007980 0.289114980169058
35 1 1 -3.249076231762343 -0.923177198587683 1.706023773650055 0.801050868203013 0.700936055824083 -0.419603418798153
36 1 1 -3.202161427055954 -1.670093211499603 2.466466454693840 0.881288996115868 0.084061043347854 0.214853848391123
37 1 1 -2.468151380759032 -0.990582176683027 2.492180799128827 0.645756921289743 0.022912815531249 -0.190366302489833
38 1 1 -2.470097740531866 -1.715159608952013 3.130034115831806 0.881748340994206 0.124889071107127 0.041625891048465
39 1 1 -3.209540774158395 -0.995024889198154 3.197163715456083 0.507215056197401 -0.155438902641000 0.103762382588827
40 1 1 -3.193124022541389 -0.252417400028284 -3.219064083666786 0.773768732986680 -0.498775544794617 -0.393140337603262
41 1 1 -2.451075156548965 0.414470301196849 -3.241872381252278 0.460281135959753 -0.407337497356047 -0.391768300572907
42 1 1 -2.519958029110652 -0.276469143866078 -2.484566328148310 0.453401889170634 -1.026654521385036 -0.671083084434400
43 1 1 -3.117211932945683 0.431214530579712 -2.501648065797442 1.166298188446668 -0.148863125376594 -0.910737529679991
44 1 1 -3.279525757945678 -0.336787621198755 -1.756865573205633 0.984387649279932 -0.771346896843095 -0.647798406013402
45 1 1 -2.574882773106582 0.348231728133716 -1.762409031690480 0.182993073313178 -0.732461188228122 -0.247624986372390
46 1 1 -2.604465431823304 -0.270149742539547 -1.108533186466494 -0.097671081240606 -0.578624980518072 -0.562677857112440
47 1 1 -3.248311655166475 0.368393963300870 -1.079623161230514 1.257290479599886 -0.988094502823978 -0.617257486884133
48 1 1 -3.327379566685037 -0.294673284565839 -0.393147814746354 0.674572001261715 -0.755321266717653 -0.952794897018586
49 1 1 -2.539997499633959 0.388614778991936 -0.386338365314614 0.297714975599732 -0.714013272630129 -0.998182014865094
50 1 1 -2.540596606302706 -0.240976069233818 0.255937198181729 0.379629028815061 -0.037783402005351 -1.034231849183307
51 1 1 -3.210949460365891 0.466092858872314 0.292296238958012 0.896811117030950 -0.497964145994282 -0.962386109695794
52 1 1 -3.240588206322097 -0.181676298094003 1.031791858131367 0.713465641354602 0.543439780779774 -0.421516304714576
53 1 1 -2.500008378420040 0.443459680782220 1.010391249041387 0.266860807439598 -0.045493925706480 -1.155293242097533
54 1 1 -2.446879368420057 -0.287497880634538 1.807603190593092 0.763423639331929 0.292586484260201 -0.163530018247500
55 1 1 -3.171383101816659 0.425664741773728 1.764610443924414 1.081564116510770 0.220706546786878 -0.749896703161766
56 1 1 -3.193625163484845 -0.258811848767894 2.538766275281163 0.830897529496222 0.107761179024209 -0.054681199730895
57 1 1 -2.444736906191534 0.412045444869848 2.385832917277090 0.105921627827160 0.185560862891437 -0.765414986557224
58 1 1 -2.462669734002250 -0.287382021093813 3.086765834086202 0.321175411577389 -0.201859797613299 -0.548447822948000
59 1 1 -3.141647392870897 0.430241481043162 3.106396569847444 0.871696593486949 -0.356163214575596 -0.484285915530387
60 1 1 -3.124471968722851 1.103525367871529 -3.245529786210336 1.005085324949706 -0.544522675272162 -0.729777536586911
61 1 1 -2.391757909110601 1.762676559305907 -3.175999613737535 1.245805460240390 -1.826569038003134 -0.854076077120034
62 1 1 -2.453987345210309 1.040781163956898 -2.456974856993913 1.170881835627121 -1.239179391613122 -0.209592819568179
63 1 1 -3.122093960684152 1.809752679398912 -2.422790659569352 1.890414141851607 -1.548437187037258 -0.401180058223109
64 1 1 -3.188906254391203 0.983357148464277 -1.746494356014350 1.492443155088102 -1.542698807654692 -0.004450673551734
65 1 1 -2.478981689759506 1.702626926914953 -1.691569523790384 0.955797140318370 -2.024077529053957 -0.267397562534632
66 1 1 -2.510711501288920 1.046728476076464 -1.007962062914721 0.858104907753253 -1.822585698950346 -0.680459112823701
67 1 1 -3.204025961256382 1.709841056747028 -0.996903835053326 1.386388773039313 -2.426793264128295 -0.465172557705019
68 1 1 -3.239359562789262 1.088422263594249 -0.358509756352922 0.864174894969808 -1.436118924675867 -0.917353023309939
69 1 1 -2.437518533848149 1.760693849234233 -0.348343016764783 1.007030138030298 -1.115874383058490 -1.476582417916951
70 1 1 -2.482478647975350 1.111078308114136 0.306919005223501 0.917706120523311 -0.425083762744810 -1.380576399014505
71 1 1 -3.227056484818567 1.798222091540344 0.302986109830293 1.062712913894235 -0.955459298248007 -1.406424602400804
72 1 1 -3.203771271336197 1.129429349222145 1.000493332498214 0.624847751975908 -0.150707562131045 -1.542387673365061
73 1 1 -2.478614453202310 1.782017778632072 0.994246426895078 0.877784628486993 -0.159911136238876 -1.350174026981035
74 1 1 -2.424206760588734 1.112439787454353 1.698668445404611 1.077555299241407 0.009945856315233 -0.636355228893111
75 1 1 -3.182960648236554 1.798997651396851 1.721441135364370 1.086427702576798 -0.636421319245334 -0.860428224951456
76 1 1 -3.116662476500578 1.092083931848008 2.393060483167261 0.986578486321877 -0.314568742130244 -0.607409658368158
77 1 1 -2.403360795323976 1.801524546830738 2.475307370368243 0.696204755776814 -0.880630474639178 0.148433786511822
78 1 1 -2.420645112340463 1.105172985078009 3.164397911462920 0.544933787625636 -1.102619704920047 0.332837738803792
79 1 1 -3.123339750247926 1.811132706196135 3.136872488101295 1.574035768787258 -1.040903965632198 -0.400535662704114
80 1 1 -3.125486733736243 2.523061642735429 -3.151191228586216 1.736161956975930 -0.937257900448869 0.065037533146740
81 1 1 -2.435378710070116 3.211294078206314 -3.171281030077465 1.075595398357863 -1.006293270847913 0.015454750304562
82 1 1 -2.449488282144317 2.440703112771781 -2.394423678423627 0.793910430824277 -1.353770097556172 0.022708292069728
83 1 1 -3.144684865936050 3.144167098159468 -2.443561022093243 1.047257328336027 -0.987746503005591 -0.291368335831657
84 1 1 -3.209845263446873 2.355889417112594 -1.646204904525157 1.256970461957661 -2.203021691439930 0.284701770879512
85 1 1 -2.522708520359401 3.098060276824723 -1.664967274549142 0.252722320494411 -1.802232266234984 0.038061128929634
86 1 1 -2.496213612846837 2.440459626423286 -1.027590215971382 0.545441848182072 -1.328086633535130 -1.161974761482529
87 1 1 -3.200012549524151 3.145193492594318 -1.049636542524096 0.911602805983258 -1.525558638415271 -0.945587730021943
88 1 1 -3.214347648677403 2.498038761382511 -0.347173363789980 1.030395702436301 -0.980125362532595 -1.351330987878886
89 1 1 -2.604199769969731 3.259156082753859 -0.332750014718357 -0.118849682193955 -0.405099587000186 -0.373279870312325
90 1 1 -2.548461671488798 2.545707220561813 0.329532572204092 0.589875639952326 -0.367401508162820 -1.005181356300347
91 1 1 -3.303641963049751 3.235114824576781 0.307670235779993 0.427075451007430 -0.570614877851082 -0.779509156700480
92 1 1 -3.230812195302597 2.520337472093822 1.033168111093396 0.660627407059267 -0.468665529592811 -0.745370781481715
93 1 1 -2.589807635087921 3.245960398249765 1.031974674107879 0.185876728436536 -0.361637291275426 0.003184816239307
94 1 1 -2.519811443859230 2.526316160120473 1.774259879526668 0.554847651491922 -0.300032411640637 0.405807020795230
95 1 1 -3.215973798467379 3.205903721695603 1.701800689592977 0.949586462933162 -0.646006500106707 -0.473315355292108
96 1 1 -3.161549742817066 2.531528554120432 2.449770989403173 1.157431340657703 -0.680795535279809 -0.012094866598796
97 1 1 -2.405399465238469 3.218386842851480 2.444672039207937 1.001439221765669 -0.720249787851418 1.041264967401377
98 1 1 -2.378883224657986 2.482313584045521 3.182212760352503 0.978169053959400 -1.172568399545152 0.574741265137872
99 1 1 -3.113497392898823 3.245533744949770 3.139908646389103 1.680959978235906 -0.612151626252623 0.325167355009146
100 1 1 -1.791923111131740 -3.183009751019163 -3.205996467941261 0.355000598010788 -0.511722676700949 -0.101776889138723
101 1 1 -1.094183345829556 -2.521616252637079 -3.121401332468364 0.332058616492378 -1.310769780046271 0.750989625319021
102 1 1 -1.112904305298847 -3.265985576301023 -2.337245408038735 -0.061369607920276 -0.781656231726816 0.885406401107003
103 1 1 -1.833829606889722 -2.528154824246758 -2.387120716326165 -0.048118188241237 -1.350204428621645 0.354514747212216
104 1 1 -1.868335371953153 -3.230746691319038 -1.706827828683346 -0.244279931465356 -0.787886681247414 0.307775894406659
105 1 1 -1.199467700234730 -2.518135465819841 -1.620004603992393 -0.542696632861519 -1.568074309285416 1.428746228639806
106 1 1 -1.148935015791547 -3.173298685543751 -0.924485442882554 0.035973319962011 -1.154302422101743 0.931662629109813
107 1 1 -1.954165858124720 -2.472069573752098 -0.939770195670392 -0.520963663717702 -1.243929637668906 1.311123148442808
108 1 1 -1.895733488728905 -3.131154364644013 -0.312999374567251 0.256099595688576 -0.930032521987892 0.492874634205354
109 1 1 -1.117889607408415 -2.407979957305484 -0.321629697376520 0.560376250595253 -0.467648510839990 -0.074723622439768
110 1 1 -1.172647119934758 -3.130550288330999 0.393714682646761 -0.010362298331276 -0.748734774828960 0.604839281255853
111 1 1 -1.917516160137660 -2.411413360215774 0.307316964263518 0.750801250698844 -0.088331557763996 -0.554363798027328
112 1 1 -1.805553064380626 -3.140465749880879 1.029558455256091 0.323182639387190 -0.435061453959454 0.177120412598341
113 1 1 -1.103151643025125 -2.479556604037223 1.027753738426231 0.281414540882117 -0.615930049831324 0.631613099151174
114 1 1 -1.082967786815528 -3.182761718967012 1.769057002930202 -0.203851034895771 -0.435076878358837 0.731792499392232
115 1 1 -1.802487895402218 -2.404957046239128 1.741152091205904 0.588555321613467 0.384324573794432 0.941338901403978
116 1 1 -1.775274275241394 -3.104628543400270 2.492806581644725 0.641089929139012 -0.221235930949784 0.793987085936542
117 1 1 -1.043370293088524 -2.477591044246737 2.482175964110912 0.786192850303374 -1.155139356403054 1.026260448999155
118 1 1 -1.087907698951979 -3.254980238509852 3.179644518435456 0.852792122607995 -0.771523562785275 0.977728917537447
119 1 1 -1.799968913316695 -2.474823110785245 3.148780949044535 0.510589975115352 -0.263741015548926 0.258104944436712
120 1 1 -1.818135586155574 -1.715258684925209 -3.164988053593685 0.278770300098336 -0.516628566764318 0.045593993382538
121 1 1 -1.121614221215432 -1.036548544043884 -3.206754325112034 -0.287968306444117 -1.037847801146208 -0.221827192709404
122 1 1 -1.184501104775839 -1.802724123424508 -2.446546708569586 -0.282686688644569 -1.443767784687123 0.196979892092693
123 1 1 -1.840040837472219 -1.067266453035135 -2.419553691385603 -0.497177745583971 -1.164031184282637 -0.072874680286807
124 1 1 -1.963132649602769 -1.807792790988690 -1.651131415656144 -0.291513362421502 -1.177076469622366 0.936732946479068
125 1 1 -1.178623607352800 -1.037157888232435 -1.782433928282678 -1.124444947807829 -1.210834290129688 -0.020633216643851
126 1 1 -1.156040239348230 -1.708070954167092 -1.082619897107913 0.280107642779635 -0.640447025140371 -0.350482369012002
127 1 1 -1.918780980498168 -0.992982350399978 -1.081507446998354 -0.255281460413976 -0.308311505322746 -0.489136875318096
128 1 1 -1.881699136186816 -1.709459765162482 -0.418888051871825 0.267586306936566 0.321303890264708 -0.725853688956580
129 1 1 -1.126290538792912 -0.945574238167632 -0.428970019076869 -0.318748832031000 -0.275851339462659 -0.569965930724791
130 1 1 -1.137457991314307 -1.707118044554050 0.287378147712700 -0.090283189864807 -0.359239294168313 -0.063392964323380
131 1 1 -1.825025812736226 -0.971675018902051 0.274930483901218 0.084668200005444 0.027507800997834 -0.424674622415217
132 1 1 -1.811472807807439 -1.674913278193648 1.004375354438757 0.165222873652633 0.610546376080834 0.258105420724614
133 1 1 -1.084779448128824 -0.943644291412420 1.022555158859632 0.081563045896732 -0.287565266334705 0.406757780259950
134 1 1 -1.070153970441178 -1.727790990072305 1.757304204501239 0.489868180507637 -0.740651580278712 0.644841056504458
135 1 1 -1.753669816612739 -0.992802509021116 1.773809772341249 0.390566169159686 0.028377704755446 0.004675531845021
136 1 1 -1.746962305740228 -1.715396157553771 2.507411303051118 0.702553153491194 -0.086094517173086 0.365530288693782
137 1 1 -1.044871849326109 -1.009467776364289 2.422168925807606 0.264479553125337 -0.831603953854765 -0.031105950294563
138 1 1 -1.064848685696843 -1.805462088210723 3.165718810858380 0.748706192747586 -1.196669516083333 0.706304023627453
139 1 1 -1.760307128478766 -0.987912642765737 3.137189383669847 0.433564822679039 -0.484849345318403 0.232491864863997
140 1 1 -1.817836975290446 -0.282082668030780 -3.214581877819851 -0.302767037175466 -0.576039513426158 0.058773355713390
141 1 1 -1.052200093144058 0.350623757761868 -3.151546232684398 0.305995733850574 -1.236126029132787 0.285776027818120
142 1 1 -1.099355951566932 -0.332943608305428 -2.503046639375391 -0.309602907062220 -1.240462823502018 0.236378904755259
143 1 1 -1.797367731502854 0.356092809854660 -2.457269148315986 -0.000165976483327 -0.902768536159537 -0.003847332904745
144 1 1 -1.883269892660661 -0.341702762724031 -1.771225378897460 -0.224327309301165 -0.579065779753675 0.056098806799125
145 1 1 -1.089364950539373 0.371417895471432 -1.743284809415490 -0.052950058904796 -0.898266750929559 -0.272437733211938
146 1 1 -1.118749509166178 -0.275222160556827 -1.055904730495346 -0.128499990645954 -0.886244994010633 -0.238464688718408
147 1 1 -1.851067253675605 0.330034129664924 -1.062384634439282 0.218358764888702 -1.154391058925861 -0.555444671915207
148 1 1 -1.854345096106716 -0.306110460639476 -0.426558063560019 0.154393406071229 -0.485383529556649 -0.564892048316468
149 1 1 -1.027364517724524 0.407483669819208 -0.349614322708480 0.453097885254167 -0.568697875132423 -0.419916507940129
150 1 1 -1.068741926172587 -0.230877380111678 0.322611693149547 0.244999771672040 -0.414305598544428 -0.025550528315836
151 1 1 -1.770327944440164 0.450323723441576 0.333342543878021 0.572450568507345 -0.164319968126767 -0.821720725292322
152 1 1 -1.784921006235555 -0.227928188727369 1.029285087905082 0.122734409912708 0.245718883401131 -0.209490624654109
153 1 1 -1.025387297384434 0.381653048125599 1.057590319536397 0.467006997082811 -0.437187147084210 -0.282811442194664
154 1 1 -1.049013832546360 -0.270212289949035 1.752713043258954 0.138147342497627 -0.365061009121638 -0.371196757964607
155 1 1 -1.760579454006059 0.444314525533721 1.759948834779076 0.356012436684556 0.348160048120745 -0.163314935492988
156 1 1 -1.748603702815695 -0.252256476182036 2.446250971768765 0.356246414252087 -0.054201027938335 0.075972706979227
157 1 1 -1.049178499584692 0.367690529538307 2.436507506935680 0.247401549357042 -0.807111117021599 0.136649212299906
158 1 1 -1.053484407590389 -0.334723896555789 3.173915818700565 -0.185356267203978 -0.952446619361734 0.221533962287661
159 1 1 -1.784730067336428 0.427663786601431 3.109959228117659 0.088406250020528 -0.327871876248105 0.013110388009053
160 1 1 -1.695297938161513 1.050767154106648 -3.189707905049328 0.792438610644838 -1.503177254401584 -0.509807792372711
161 1 1 -0.980663873875910 1.642700711588224 -3.176465660816335 0.616708842057308 -2.145271758643219 -0.276114840721042
162 1 1 -1.031020322401252 0.978869288965355 -2.480752204625778 0.400269796189719 -1.382263333150266 -0.430098081937567
163 1 1 -1.741879414937482 1.710468889690017 -2.404378691645076 0.368016834100463 -1.436010607329051 -0.269857391439090
164 1 1 -1.761716159345287 0.985347591765726 -1.717197325294380 0.656185212404952 -1.845739508554833 -0.073680428300164
165 1 1 -1.039553609088887 1.641869753900672 -1.633356143596400 0.522442756049702 -1.841390509896962 -0.428297937332236
166 1 1 -1.036086877667649 1.006884993006974 -0.986884055983977 0.865067104416367 -1.195162349559085 -0.512542629861458
167 1 1 -1.758938224236343 1.754440021940462 -0.998249121613695 0.590531343151663 -1.121736244640809 -0.720246950872752
168 1 1 -1.697100277297643 1.110490730627990 -0.371026603724801 0.998785391243037 -0.569525744107964 -1.273055514937297
169 1 1 -0.990390759374485 1.753241152739248 -0.285445812054605 0.666622187317552 -0.867521356809850 -0.428106366965847
170 1 1 -1.011323290104774 1.029638130208606 0.355967559379128 0.925739374483078 -0.698552711519856 -0.614248790248049
171 1 1 -1.780195761890513 1.839771924727122 0.337019507726856 0.428587779049793 -0.154379019424170 -0.653413100547393
172 1 1 -1.737116817729138 1.129197270240454 1.025427814700335 0.851329822913578 -0.272148647238366 -0.591169251111720
173 1 1 -1.071787767093888 1.699118012285120 1.096157118601344 0.252395279554665 -1.202199365870765 0.151622551736102
174 1 1 -1.052031783797400 0.973442078908229 1.767674727226074 0.476720043010576 -1.292631875298176 -0.043016249705365
175 1 1 -1.760030893625571 1.782823039000363 1.793887362568116 0.691901550599181 -0.834302370490857 0.503215542127114
176 1 1 -1.728024331323829 1.094771072882647 2.437173727025992 0.743878499555241 -0.986214333285645 0.241562353158975
177 1 1 -0.983344865411834 1.734982867710020 2.526597765639885 0.112213905592440 -1.440398633232737 0.390932943260195
178 1 1 -0.971012551598190 0.979350650996256 3.220376646579637 0.679815395270510 -1.880435059555448 0.658219331769609
179 1 1 -1.667373697109168 1.771671562254587 3.221534882735885 0.701951942257153 -1.506411877098383 -0.046491161294645
180 1 1 -1.720119095901883 2.384834194109130 -3.121848473079625 0.720616743745356 -1.847021844995372 0.218057643980304
181 1 1 -1.097512596163522 3.101801613534718 -3.112537107163990 0.078884204151443 -1.328102061539406 0.602376136740260
182 1 1 -1.077918547978240 2.382206561208446 -2.370062128410231 0.051702679976265 -1.581892336557734 -0.346237495267654
183 1 1 -1.821601001745810 3.116209589789482 -2.385293163861471 -0.268168807822770 -1.130908940854577 0.287131415021980
184 1 1 -1.775810309965062 2.355777951388645 -1.660412386249216 0.321809318071491 -1.645590463032718 -0.377285471352219
185 1 1 -1.113244569582230 3.116879538861776 -1.611345609236416 -0.046236107676857 -0.954254225657351 0.732192399674747
186 1 1 -1.053813585225191 2.450339147633010 -0.937948579356429 0.180844581096629 -1.087918947243827 0.274501506171295
187 1 1 -1.859364499163219 3.207807813429698 -0.983476323748873 -0.484416132215915 -0.389277495593344 0.298711468798338
188 1 1 -1.819576908376333 2.519302718946596 -0.316666570143331 0.207306902835331 -0.316485587383498 -0.485985095728271
189 1 1 -1.136944682234118 3.203066697932006 -0.228714714543033 -0.448895649273719 -0.858428786064940 0.690948460936211
190 1 1 -1.081551480258919 2.463271979058894 0.445118065904372 -0.032947028552299 -1.185672094748775 0.643967901982255
191 1 1 -1.876889617689573 3.234933313375413 0.403754409155139 -0.086173572667237 -0.537398932293606 0.205726200512138
192 1 1 -1.815953968998144 2.513923382445632 1.120741750089587 0.018514383902984 -0.627577754677103 0.673132252997696
193 1 1 -1.126480290992449 3.143353024880273 1.086996864740276 -0.260341458371576 -0.692758323730213 0.748014694616618
194 1 1 -0.996709350174001 2.406699413544173 1.836577773647561 -0.313398628240483 -1.123488141576857 0.647811542045952
195 1 1 -1.753932612789483 3.152870518192144 1.795327644482947 -0.239763251111854 -0.637486839181609 0.861606680946655
196 1 1 -1.670568744984969 2.465632899065663 2.535505677951755 0.282729806273760 -1.040008216101646 0.783902402667496
197 1 1 -1.029895109251776 3.192289735496509 2.522515468607936 0.269705591325929 -1.247082064553352 1.000242337149890
198 1 1 -0.983039354632130 2.342697935718460 3.214672271215645 0.730808445154964 -1.571406401850709 0.350559127673225
199 1 1 -1.750887827023272 3.207498200322987 3.226167113241051 0.700575455993633 -1.102759032482145 0.636006559362841
200 1 1 -0.365584063094919 -3.224377541497734 -3.098872103389323 0.554460688566695 -1.550885014437689 0.651669595187844
201 1 1 0.399784768018989 -2.435992620860186 -3.230120157002726 1.324159058382991 -1.040821711088239 -0.223931851812824
202 1 1 0.403153329884367 -3.160782789345423 -2.412221835321528 0.553430911249032 -1.214263666791783 0.157395081100188
203 1 1 -0.392762171017023 -2.453839937854549 -2.428065721420306 0.261619495498424 -1.587689792052018 0.068226106151634
204 1 1 -0.403615300671346 -3.170652179362369 -1.673402705097499 -0.097017816541884 -1.470462639532887 0.665283553140101
205 1 1 0.281450403856193 -2.473263869531036 -1.799119899778378 0.048863035310224 -1.213925923102621 -0.530798581045928
206 1 1 0.342026182341497 -3.155787425341468 -0.943971432445568 0.632262046561123 -1.530424631921246 0.238071672411481
207 1 1 -0.444121057300966 -2.427721747696444 -1.002907949408219 0.705194087204431 -1.220247520232270 -0.221655168264296
208 1 1 -0.455310097452924 -3.175512933024026 -0.248907514324434 0.306906008006346 -0.960107722392086 0.695949461881170
209 1 1 0.338156123482891 -2.437587289241298 -0.389719547544139 0.973660802065818 -1.400072126788844 -0.391279657131390
210 1 1 0.329825989059515 -3.191626630508054 0.327158049129247 0.338557128575589 -1.473969058118888 -0.146617126426599
211 1 1 -0.389163810822489 -2.453326079789718 0.299797046482306 0.750932288104736 -1.389645618004405 -0.101948142331121
212 1 1 -0.359957126386732 -3.196986440098029 1.067220662654609 0.037122144229841 -1.189505819122364 0.448200023846209
213 1 1 0.397657579539612 -2.459420120557383 0.943328245548826 1.023280483736762 -0.949407885701855 -0.156851935391381
214 1 1 0.358308650634863 -3.146742848691003 1.761453197148247 0.966898001921974 -1.301182414755760 0.602267950148670
215 1 1 -0.344192296434036 -2.427464113025232 1.690160725794332 0.918975895755111 -0.981010763941743 0.352415692469209
216 1 1 -0.383433458575723 -3.206712485727649 2.521311273817880 0.720774126943042 -1.375998588242421 0.918775022657494
217 1 1 0.385202990173091 -2.477601670762213 2.413007219921082 1.764437102714469 -0.945454247682480 -0.010246481242555
218 1 1 0.412654651813230 -3.187983118185430 3.171856990031720 1.574345433114262 -1.176420282432732 0.545332428359707
219 1 1 -0.346527423170536 -2.536517000813359 3.190130089652054 1.187766564966123 -1.638687918862679 0.675389826055109
220 1 1 -0.416410936431682 -1.721569885499297 -3.227108016517541 0.220950102284738 -1.742335774846754 -0.743106526922867
221 1 1 0.350257081016238 -1.019357278217537 -3.277579436489580 -0.447512196662894 -0.947048203319879 -0.888719706883041
222 1 1 0.298013651614372 -1.755319215572574 -2.577005994613758 -0.303079231152069 -0.777121559211387 -0.945351587864404
223 1 1 -0.422747352637827 -1.047563517317185 -2.528055891819186 -0.649749701304962 -1.222207644479707 -0.480325885651784
224 1 1 -0.465015735190551 -1.735092980375578 -1.776008297599385 -0.096163379321073 -1.100239331592314 -0.127672863970425
225 1 1 0.347744966949533 -1.054585404114924 -1.824230617405519 -0.439488307691874 -0.993127035434818 -0.782655918011686
226 1 1 0.344350435820739 -1.758163977809229 -1.073748520362735 0.221827369675128 -2.009489754705466 -0.582448664838135
227 1 1 -0.404987599936704 -1.008678077753161 -1.084929787493029 -0.145252546159633 -1.303224599039567 -0.546042224128899
228 1 1 -0.411554435815154 -1.677246340954648 -0.399089943014988 0.233536647895494 -0.955234129156851 -0.586126769531995
229 1 1 0.342742113724058 -1.086703325322325 -0.433551753526609 0.377919816068186 -1.552544119285210 -0.559342987950185
230 1 1 0.339042861683510 -1.783168850854517 0.204374298477932 0.545187455157911 -1.583559162462006 -0.397311091605993
231 1 1 -0.415169045847132 -1.081007576458069 0.282634503968711 -0.253552123466813 -1.511561256496628 -0.409543010980653
232 1 1 -0.412902979794381 -1.741713302310976 0.961482117519951 -0.220201392833596 -1.033750697480577 -0.142171664686668
233 1 1 0.406726345121063 -1.058761932664453 0.967901248159570 0.888037152546059 -1.227109612092740 -0.538175124270085
234 1 1 0.346800592631799 -1.778930037917382 1.701842642720242 1.555468152217206 -1.283978503730383 -0.062643886099910
235 1 1 -0.311418417023340 -1.084456808440585 1.735204905463086 0.687656903764311 -1.636807663440512 -0.203959851210460
236 1 1 -0.385712227787490 -1.793823034863752 2.484622348144331 1.165626576134808 -1.304647882249453 0.275698943225162
237 1 1 0.425932561766790 -1.049349421007128 2.381377415137055 0.699458131768772 -1.005004878447576 -0.451745567141895
238 1 1 0.389387493845338 -1.746040404134553 3.061576126766938 0.980641837410746 -1.461132401948644 -0.652640581393716
239 1 1 -0.356594960662624 -1.060114302086592 3.156696063484563 0.151212066681429 -1.365229391071874 -0.627779651089761
240 1 1 -0.339161904679317 -0.340053711326245 -3.231282743219594 -0.325183754808794 -1.384651619992924 -0.162730352328277
241 1 1 0.447811439783255 0.328302584760395 -3.194854094118786 0.813683140582683 -0.998002981388497 -0.094353852299553
242 1 1 0.336058487303042 -0.357524702267023 -2.506674108284320 -0.109153382478597 -0.995082444371909 -0.256441504465684
243 1 1 -0.369125203101097 0.308709409406832 -2.529658132636066 -0.072253513257183 -1.075116185489391 -0.352713488772332
244 1 1 -0.449975575933933 -0.369830393423204 -1.778388622387495 -0.443859465010906 -1.194309416560707 -0.481489534689350
245 1 1 0.400074734966080 0.230961399044722 -1.765610976165426 1.052195211129361 -2.190016380380731 -0.722318963014355
246 1 1 0.370300574440278 -0.398072828988081 -1.069793847266767 0.634336334464635 -2.365390344847414 -0.185141009322817
247 1 1 -0.340788564925270 0.283848021213197 -1.038686538895332 0.797258774274835 -1.637924384438695 -0.329943810922343
248 1 1 -0.367697978026470 -0.352137134040833 -0.381118392985356 0.215622387156587 -1.306162723823737 -0.456268817661534