ITEM: TIMESTEP
80
ITEM: NUMBER OF ATOMS
500
ITEM: BOX BOUNDS pp pp pp
-3.535000000000000 3.535000000000000
-3.535000000000000 3.535000000000000
-3.535000000000000 3.535000000000000
ITEM: ATOMS id mol type x y z vx vy vz
0 1 1 -3.159627459472203 -3.146678755481939 -3.239477486826119 0.224447712261804 -0.313562739878039 -0.374081161767513
1 1 1 -2.534051889839183 -2.446201643915952 -3.257554821951292 0.259161471057110 -0.508940621728155 -0.250292827500920
2 1 1 -2.494097282216399 -3.207966308638662 -2.490213899702028 -0.069147380853971 -0.911244581820874 -0.540204808846719
3 1 1 -3.177272375045887 -2.490958669767620 -2.527667574546904 0.389295601262464 -0.484437434732084 -0.630072972271792
4 1 1 -3.189321575539916 -3.232223138627971 -1.792513373892989 0.434525709348797 -0.789578701020362 -0.647321785773105
5 1 1 -2.605210084995299 -2.519017374585856 -1.725190961716802 -0.280397371215177 -1.278948806344240 -0.027922779453537
6 1 1 -2.597390753280666 -3.108742097249594 -1.057120302123945 -0.669869049736405 -0.163656877988968 -0.450083071358637
7 1 1 -3.325274964421475 -2.518424673224703 -1.067767898558036 -0.013133059264025 -1.158464711632135 -0.861065209591025
8 1 1 -3.310365494048263 -3.099388689064151 -0.414540131632169 -0.259722235345837 -0.174956823097451 -0.537039445197249
9 1 1 -2.659193672673454 -2.421093508343106 -0.377369107276165 -0.432721349734642 -0.219720943034120 -0.454577026419423
10 1 1 -2.636203148409507 -3.114358243286293 0.282127876016970 -0.563105060202897 -0.195925140111958 -0.123490282031000
11 1 1 -3.311791741133101 -2.412263501292045 0.201762704690564 0.109992400123592 0.276411767222377 -0.660406680480064
12 1 1 -3.279512548735582 -3.131448182870044 0.907571175850971 -0.094086030104878 0.610777635735272 -0.440514443042374
13 1 1 -2.594291495971398 -2.385069888128509 0.919367474073141 0.235978644981112 0.319350717299255 -0.040710375663667
14 1 1 -2.479475141103313 -3.105108121245998 1.662241326987391 0.321243494728958 0.159283034025104 0.585270793762134
15 1 1 -3.228226360437929 -2.361019186378639 1.602923755390784 0.947192776087871 0.617669960053096 -0.423989762167593
16 1 1 -3.128881400554459 -3.103846188694027 2.369725214921863 0.853478378630281 0.150047029611842 0.064138112606418
17 1 1 -2.519046556599363 -2.370423397409900 2.453641310846193 0.526895008094799 0.187224738524514 0.638752670431103
18 1 1 -2.474589740166550 -3.113270746430761 3.162809505412919 0.113394327977513 0.009039782217921 0.236968598227560
19 1 1 -3.185988299953655 -2.380299429542860 3.129694311869457 0.728515562898039 0.385092335465863 0.132765581388496
20 1 1 -3.176479610546825 -1.700091807703997 -3.219610426313770 0.353897700574962 -0.440301545269937 -0.281324391641787
21 1 1 -2.549653946183907 -1.010516363209838 -3.185333724083519 -0.350667635343937 -0.756040927919863 0.127875448775702
22 1 1 -2.547170075936474 -1.774593400615310 -2.461187629463192 -0.162067553377043 -0.767820043186360 0.312287654976807
23 1 1 -3.274128571173856 -1.004037986060069 -2.430536442010384 -0.262122138077264 -0.222773129999004 0.296513459154002
24 1 1 -3.308018191016286 -1.797343407434902 -1.718821642645046 -0.270679828875671 -1.156208463944108 -0.311783112118416
25 1 1 -2.634403528590702 -1.089819601659317 -1.736618331769218 -0.534376095690904 -0.746339382129532 -0.158903933138288
26 1 1 -2.662100137584325 -1.761814521634274 -1.027003751815800 -0.234219242803969 -0.292895123011969 -0.378173023839559
27 1 1 -3.338544276352622 -1.003682492831884 -1.112795773519787 0.738593241434451 -0.130995942556766 -0.633693885472703
28 1 1 -3.343256774246006 -1.684389948265697 -0.461779961699302 0.125767406371854 -0.038306148926005 -1.011743638978225
29 1 1 -2.661840698570864 -0.979030326125032 -0.455632669048753 -0.296814129862494 0.537968386616555 -0.406536017120074
30 1 1 -2.654349602462559 -1.681988862958003 0.205492728888988 0.142509293802920 0.363419066790852 -0.675754097458525
31 1 1 -3.361300431437136 -0.992129939401469 0.206497378709680 0.237046626493187 0.659924507155619 -0.444848436233550
32 1 1 -3.334214258590554 -1.670562918007664 0.858918785380623 0.652858271566715 0.459459835812358 -0.871843261204299
33 1 1 -2.558732740839216 -0.908642578935029 0.994934237458498 0.055966072342933 0.879651138343446 -0.102313132287713
34 1 1 -2.559929795354941 -1.695052184271441 1.712445972322132 0.501236469984239 0.431805883841463 0.572604792555436
35 1 1 -3.243177127125419 -0.893338552670217 1.701708169926499 0.891810082603511 0.942291944220530 -0.063815312841844
36 1 1 -3.197856893399345 -1.650002646201523 2.476083989497430 0.921762623907029 0.461168302083342 0.403542754666058
37 1 1 -2.468411357757585 -0.970611617356960 2.496190457921131 0.515289832876865 0.342226503565548 0.233121471878370
38 1 1 -2.468242132206038 -1.697158734460452 3.136278538817093 0.533119989101190 0.068878347622338 0.178539586823285
39 1 1 -3.213083022247479 -0.980415850365635 3.202766928158741 0.375884736831156 0.094069425617751 0.335886424676707
40 1 1 -3.196703327063367 -0.242344168236672 -3.220225902339351 -0.085269443325437 -0.075752379468135 -0.004399702734622
41 1 1 -2.461894145448997 0.418522800614501 -3.242955475889854 -0.246974415893585 -0.538904333265306 -0.129004801111294
42 1 1 -2.529352476697753 -0.279813070946154 -2.491393302386305 0.055989969265804 -0.836869627199089 -0.421976106711399
43 1 1 -3.116144833839224 0.444542219064917 -2.508989002764770 0.294754405089817 0.051550112432566 -0.525228451311379
44 1 1 -3.278224575598228 -0.329856166461324 -1.766060976434562 0.481159334889633 -0.024237401992083 -0.907201124536138
45 1 1 -2.589228550418912 0.354704413133695 -1.757860034021414 -0.216467182368450 -0.143568982647688 -0.159661291639481
46 1 1 -2.624198166970503 -0.258331083325008 -1.110592853635962 -0.551951789233930 0.124250648004422 -0.354298016275397
47 1 1 -3.241896122429916 0.375133103147658 -1.088782974983828 0.672635144796809 -0.138170519565881 -0.723117961143729
48 1 1 -3.332138040945871 -0.283759664655450 -0.407721955135314 0.015212310460949 0.030256458195113 -0.897615143224943
49 1 1 -2.548140652314057 0.401864403567316 -0.399740622716760 0.122681006596481 0.170222002711239 -0.631367003717346
50 1 1 -2.549027969079141 -0.218678315610503 0.242952737928798 0.330035284353285 0.327405996084132 -0.270731307929051
51 1 1 -3.206720507060432 0.479648085052712 0.276231826004586 0.647476099563770 0.033361854921231 -0.712283613575649
52 1 1 -3.238020113395000 -0.150324233757893 1.027704132336600 0.577175971721336 0.836833489079428 -0.176937010488572
53 1 1 -2.510472395559372 0.468691606892688 1.002126063790122 -0.189575972430731 0.475385420394001 -0.166309184021801
54 1 1 -2.445522804902226 -0.261227137608623 1.812307683597269 0.632419147054990 0.682469256535903 0.444539127707892
55 1 1 -3.166445497232547 0.444683167306329 1.757893143168095 0.421507064079313 -0.068821753059351 -0.192289816899205
56 1 1 -3.194683582676456 -0.237551479639294 2.542150735878110 0.520353904641426 0.378262761695243 0.202023309129175
57 1 1 -2.455982508637556 0.428030685033489 2.383603450520138 -0.040252545568144 0.089059366342067 0.056986747070391
58 1 1 -2.471720413538182 -0.275010837871773 3.085085242987946 -0.131205529911678 -0.151439961856453 0.132762576701714
59 1 1 -3.141063620404772 0.440543913469239 3.102688960551294 0.414187432258370 -0.207476758415802 -0.007820122659981
60 1 1 -3.123249931485478 1.102276611083513 -3.249927418031505 0.343491670779246 -0.586794281159838 -0.440508186438074
61 1 1 -2.385728556455450 1.743183275939272 -3.182977594438369 0.790997316629445 -1.441304106337151 -0.489478147078847
62 1 1 -2.443831208525557 1.031522012567249 -2.453502447784610 1.244702158097051 -0.922684460991394 -0.229548500274003
63 1 1 -3.102374818495649 1.793549620398382 -2.424658252607278 1.652596251105822 -1.177215846257408 -0.305801349881253
64 1 1 -3.175065992390047 0.972165721495990 -1.743361076147458 1.331499371362836 -0.924898440146248 -0.223743284248487
65 1 1 -2.476161962158003 1.680756791058184 -1.689877407175279 0.603177950676253 -1.614049403940871 0.054478679628246
66 1 1 -2.507191695934758 1.032181397543163 -1.014823188597036 0.722440154198323 -1.362941105412569 -0.421549342368560
67 1 1 -3.193158484847339 1.680644416556044 -1.005016915899540 1.076580933504836 -2.010191839643682 -0.566535306591473
68 1 1 -3.235362542561940 1.083960372225350 -0.374368576456622 0.787526604292105 -0.831082694691026 -0.731241484248415
69 1 1 -2.434036512659112 1.757215410251300 -0.368889998407932 0.396837641914377 -0.926493772904473 -0.903222887194736
70 1 1 -2.475172415893931 1.119981717979913 0.290557886258662 0.786427210955714 -0.344490038379492 -0.681220141076360
71 1 1 -3.219804561571852 1.792662910713766 0.283068081354719 0.800785770800105 -1.080834329575876 -0.801121101242766
72 1 1 -3.203751782434697 1.138677669583077 0.979008715432844 0.515766723083678 -0.360393444333346 -0.892757061196145
73 1 1 -2.479177542423190 1.786446130273998 0.981731361560288 0.068742261593686 -0.546527847405613 -0.616493599919876
74 1 1 -2.417050643796879 1.123170873076315 1.694676710315571 0.625935725521970 -0.169829400718360 -0.231771785260963
75 1 1 -3.176286505374615 1.795609829143500 1.712209011027396 0.835565211961908 -0.832484448408104 -0.547156316749068
76 1 1 -3.112826602069984 1.098641430171523 2.387525986940713 0.835001550916048 -0.390522064788075 -0.328967726369444
77 1 1 -2.404827843391681 1.797385398395891 2.485465555556946 0.463567976888014 -0.772204080030433 0.352313775568661
78 1 1 -2.418630835355960 1.099791672810354 3.171877482144220 0.652811106242187 -0.906112760656223 -0.060697286286985
79 1 1 -3.109749250613962 1.805309769618155 3.142423966253125 1.210346233048132 -0.791937983107172 0.385755122364471
80 1 1 -3.118413065722261 2.517159428998246 -3.141255332059183 0.843662100087840 -0.675597882411950 0.229892733987809
81 1 1 -2.437682494544973 3.205194588472054 -3.166460133555505 -0.017632328616460 -0.836891623344741 0.121544864828251
82 1 1 -2.451174240291992 2.425184478338708 -2.386309289464726 0.562307251499830 -1.375704777095347 0.094809862929757
83 1 1 -3.143278608809506 3.146849719179076 -2.443319820714410 0.363223779489405 -0.372250236427296 -0.188995481796514
84 1 1 -3.201066515091899 2.330937491102026 -1.639269548334322 1.007647343939431 -1.680573013848318 0.166462340208427
85 1 1 -2.537496135452341 3.082349110466007 -1.658661387910263 -0.575265928289376 -1.268650248630135 0.120615253827856
86 1 1 -2.509598117939533 2.432139697927722 -1.039463884656863 -0.589802494937270 -1.125051715302380 -0.568409114012301
87 1 1 -3.207902148818115 3.135487961513379 -1.063032098902232 -0.323852687743386 -1.123304673197616 -0.826373484488950
88 1 1 -3.214048316884270 2.498984005223641 -0.364622434798649 0.251867201271263 -0.656994471595492 -0.835964873602672
89 1 1 -2.625561404051531 3.272154926161515 -0.328574305218365 -1.042853201823407 0.065389902226952 0.155451072530558
90 1 1 -2.556405562891867 2.551605475823121 0.323833859469776 -0.273405010882013 -0.361488369639114 -0.275573669505934
91 1 1 -3.316460797744999 3.242633112443412 0.304920270574216 -0.402050948011514 -0.118440210015737 -0.313866840657490
92 1 1 -3.239049326750687 2.523438163613690 1.030685090503983 -0.152047044180626 -0.426057418565488 -0.312277797108655
93 1 1 -2.605311691734022 3.255428415783571 1.040643322303352 -0.703288501650694 0.192581238158240 0.055140131991374
94 1 1 -2.523424055325751 2.529960256672192 1.795271043810162 0.309083930829941 -0.286962063731693 0.847181978900440
95 1 1 -3.217609632021409 3.212923150522531 1.706313789581781 0.271132097803767 0.144277287710625 0.012410685057124
96 1 1 -3.159018442703462 2.534213546687147 2.462875832845725 0.800914412745938 -0.196570848015079 0.461664058330853
97 1 1 -2.405967199778383 3.217004367287494 2.472640038919370 0.271236348992478 -0.690849022715229 1.148148364336018
98 1 1 -2.380618551713714 2.474641751361596 3.200562756621395 0.212213798384016 -0.811969284963866 0.654972088863843
99 1 1 -3.103765164373224 3.250077147323619 3.155471572032635 0.803315744536132 -0.188686222372957 0.570317488731099
100 1 1 -1.800534136622349 -3.179331962771262 -3.200855067548730 -0.058095168576462 -0.446139565130705 0.103985040627308
101 1 1 -1.107000663806260 -2.526710495391379 -3.100585678502536 -0.340003787535363 -0.871876041024520 0.650970691340938
102 1 1 -1.132505745831127 -3.264530173654100 -2.311939905690392 -0.561503906252782 -0.649275517607004 0.805662143933551
103 1 1 -1.854722674751456 -2.534427508800544 -2.373904495566235 -0.662606084962846 -1.039485911149609 0.270773757293563
104 1 1 -1.890097615900245 -3.225070816746152 -1.692062579837185 -0.708211611361051 -0.434852922663127 0.439387875071608
105 1 1 -1.226945521534031 -2.526819469065444 -1.583945594873633 -1.016389539400285 -0.868008599347365 1.306167581412693
106 1 1 -1.165063407269920 -3.177650990429477 -0.899500250505256 -0.681069555929174 -0.654430309366684 0.895901459553227
107 1 1 -1.980858668532974 -2.474872033367907 -0.908747526483301 -1.206518179307399 -0.436865541480535 1.119238728031938
108 1 1 -1.907780188091005 -3.131183374427326 -0.296653918619226 -0.569872027277543 -0.379134540118276 0.461276377468548
109 1 1 -1.128506567057932 -2.396441478782512 -0.309121542837105 -0.288995477431604 0.162079016904460 0.514586628830225
110 1 1 -1.192503288438254 -3.126774421453200 0.415494277161379 -0.666835447063011 -0.116182813138516 0.925232254333962
111 1 1 -1.925487416369774 -2.391929463212300 0.305701840993107 -0.101035950756731 0.396461320031930 -0.152358932813995
112 1 1 -1.820404337277128 -3.129969784870950 1.046077691960460 -0.396915097717192 0.342750618987659 0.896793979272282
113 1 1 -1.113164312584652 -2.473764188484176 1.048248904255883 -0.236609921560152 -0.151152038151885 0.821876360355701
114 1 1 -1.101901282857488 -3.173556736501237 1.792619750881072 -0.606756343304194 0.195090323367677 0.726322970213978
115 1 1 -1.806508467901891 -2.386205919550992 1.765824798572552 0.215604532010916 0.401845494164733 0.862090595473885
116 1 1 -1.783032696541552 -3.095613485236464 2.510561299989249 -0.148346472316981 -0.037937715465610 0.537106565185101
117 1 1 -1.045931962317588 -2.476544322983001 2.502817843394837 0.353941914411078 -0.143257826045761 0.466392805186528
118 1 1 -1.091744568470491 -3.252363234221610 3.201716462295193 0.227530247895228 -0.318692318621697 0.630572758938962
119 1 1 -1.805607103037055 -2.461485200379849 3.159413040299611 0.071527854021134 0.095957308803791 0.310195986606366
120 1 1 -1.829785036706320 -1.710444735931282 -3.156614587678503 -0.224413859905328 -0.583735466329930 0.391462919336706
121 1 1 -1.150774946202630 -1.038159098911573 -3.207009289696420 -1.164113828592495 -0.666120748514844 -0.344184081974054
122 1 1 -1.207258782108963 -1.808868332847593 -2.433788854868790 -0.569732621982771 -0.867623122314257 0.060087236061481
123 1 1 -1.869650127641604 -1.072277163329902 -2.411752943691708 -1.116555381184411 -0.759201180641574 0.149187552279885
124 1 1 -1.982489391143827 -1.813519118504616 -1.625909820202231 -0.680566238345824 -0.838020449319333 0.803581150467144
125 1 1 -1.215833300182840 -1.041525325600467 -1.769812894605873 -1.427315985674320 -0.704788006355962 0.419377745349662
126 1 1 -1.171669804748898 -1.700466720571701 -1.076504542251168 -0.630306433462023 0.036534157850886 0.013142937581996
127 1 1 -1.943242371163608 -0.973991309799334 -1.082653067904075 -0.975898341473776 0.630130949787483 -0.368521605547714
128 1 1 -1.893939860759753 -1.681794403394776 -0.422843404462059 -0.279738853337645 0.805717841103187 -0.328669639345132
129 1 1 -1.149386045120927 -0.923647627035528 -0.436226638645601 -0.626517392918890 0.838587071761739 -0.735068748004138
130 1 1 -1.157709340074107 -1.691058134922256 0.293280214058330 -0.561050792347078 0.432993664705017 0.063856587429389
131 1 1 -1.845336194640860 -0.949204745455524 0.270314933584521 -0.639147136642399 0.554161628660984 -0.301962343902274
132 1 1 -1.824703580704494 -1.649043936663923 1.020539442977095 -0.243141894257300 0.731666329009908 0.724080937031777
133 1 1 -1.098255118339971 -0.927135512459672 1.039047298809703 -0.231354208129444 0.698351274253413 0.532686428795116
134 1 1 -1.076877354845283 -1.716364739594942 1.773798416941675 -0.022910455096609 0.434101873957354 0.223063473876055
135 1 1 -1.760360528854103 -0.973697640260785 1.781942265647239 0.096496044921163 0.523787209051514 0.208209615216075
136 1 1 -1.745224606487490 -1.699259338803139 2.519713706315543 0.540450819216766 0.200600424330743 0.365729482126974
137 1 1 -1.053730941481620 -1.005684589844871 2.425096130621966 -0.014655286179510 -0.330755969966883 -0.172114797311901
138 1 1 -1.068554366025860 -1.808033882886581 3.183993795263134 0.352206785771323 -0.843871394494189 0.416318335001678
139 1 1 -1.769375736054286 -0.982974852975429 3.144331016842072 -0.295376328515417 -0.354111681628793 0.327747166570167
140 1 1 -1.842617583432476 -0.273847440000271 -3.207588319283742 -0.902176379538710 -0.074491200034702 0.232401028940246
141 1 1 -1.064967419097815 0.341394165920032 -3.143171550136213 -0.299633678692231 -1.070993276595034 -0.023274039785044
142 1 1 -1.125337971645691 -0.338082397938006 -2.487515482242408 -1.000043620915842 -0.904942569868737 0.443102057572535
143 1 1 -1.813890558354475 0.359329918891198 -2.448090823700645 -0.236770647863801 -0.291113438345681 0.116191778204138
144 1 1 -1.903025415112267 -0.329934657599586 -1.762772792955705 -0.463899246370978 0.103390417711444 -0.097222865546741
145 1 1 -1.105555300183940 0.379693710119877 -1.742753666575497 -0.340801410967743 0.147551211348685 -0.725457926354987
146 1 1 -1.138599771382248 -0.264071589989391 -1.056713888127070 -0.499707890238832 0.412812985520659 -0.598558623246601
147 1 1 -1.863119121489917 0.335661744428913 -1.067985612592584 -0.194148005665722 0.101902444563949 -0.705564921557816
148 1 1 -1.868872528492607 -0.285421141568146 -0.432266177582075 -0.261550067493068 0.628882361814561 -0.501501997447374
149 1 1 -1.029854076816311 0.417750175532997 -0.353091230541787 0.235393114998514 0.036521846533580 -0.421730462022485
150 1 1 -1.076129224803774 -0.219283445207745 0.331047492024631 0.325913700061144 -0.090774389780449 -0.108597169026731
151 1 1 -1.769036488942537 0.465616659632329 0.323110627571284 0.526564355819427 -0.042541464432646 -0.625119959089048
152 1 1 -1.792374718147415 -0.208711994835029 1.034409713099545 0.173130003411196 0.395497004903952 0.307440286687632
153 1 1 -1.028449093002316 0.390534171655410 1.063013570482886 -0.151007815463231 -0.130336993345972 0.290810414703998
154 1 1 -1.055430503367442 -0.256613069772907 1.754587770568824 -0.072477598488809 0.278625013815684 -0.061629010507853
155 1 1 -1.762248200102926 0.455872063563834 1.766453411016317 0.083743713045054 -0.169865498365692 0.309908629529725
156 1 1 -1.755464731338026 -0.237239933205784 2.455745383704397 -0.047307073334969 0.152355180879483 0.413372191587640
157 1 1 -1.058703470549760 0.367520157126007 2.441750648460069 -0.283478271454475 -0.539765783936349 -0.194523494546782
158 1 1 -1.073786120056877 -0.336390905466207 3.181140905766835 -0.642592530160656 -0.849735409429089 -0.131396330660669
159 1 1 -1.796578589086794 0.436104750218486 3.114389515186375 -0.188384969102140 -0.185859898587542 0.090745607732141
160 1 1 -1.697685776285843 1.038291556953982 -3.192923818645357 0.281227680212655 -1.228030315525589 -0.374640885077910
161 1 1 -0.988185072617603 1.614784498000037 -3.171943559791434 -0.189973702710299 -1.893611437755278 -0.142160927442436
162 1 1 -1.040925277769963 0.966233331210370 -2.482046682066885 -0.096750795798152 -1.199771438726279 -0.814754676418283
163 1 1 -1.748786491141654 1.695976807428382 -2.398692497366015 0.137629498236579 -1.319767196959467 -0.101395738185529
164 1 1 -1.763940356461009 0.974656173269761 -1.712097715488276 0.336677750754216 -0.967581000662246 -0.158833059975595
165 1 1 -1.044010910492502 1.621765788151949 -1.631821137388072 0.066684522625572 -1.590806505307814 -0.140876742777077
166 1 1 -1.031853662305473 1.001933697910036 -0.995126454620312 0.463903708155274 -0.887041197839215 -0.775230465593547
167 1 1 -1.762146628993696 1.749766086615783 -1.004885210870993 -0.030635396764516 -0.932568743979128 -0.507737666637909
168 1 1 -1.690604685652379 1.117644895771963 -0.388576674956910 0.545475645631337 -0.490336179560159 -0.955112965503339
169 1 1 -0.989592276414306 1.746892662651712 -0.287836582412855 0.058327066389772 -1.129177230981378 -0.115711637121615
170 1 1 -1.007604363439609 1.031246964614885 0.353815285693880 0.145286623120243 -0.599709275509967 0.004291855235196
171 1 1 -1.785996337783479 1.844882310599852 0.333911489371633 -0.253270957114251 -0.517798961971310 -0.093042487071848
172 1 1 -1.736962963544555 1.132457539850981 1.023053881582226 0.021109867526120 -0.574014373194326 0.018767308893044
173 1 1 -1.078226674382341 1.685199742053169 1.105447466611278 -0.237267841523727 -1.149143999497841 0.545101229935341
174 1 1 -1.057393334290356 0.957388743823056 1.773570686586413 -0.210354286960048 -1.233635719438601 -0.017666155074380
175 1 1 -1.761745481471983 1.776034668962434 1.813870564469559 0.146054577630816 -0.785772078695158 0.739512187579837
176 1 1 -1.727818028132877 1.090000861094657 2.443311863818591 0.250167119145481 -0.812806268884188 -0.078412065551419
177 1 1 -0.992955113821474 1.716702277923554 2.536021850338990 -0.076098123032053 -1.508298710422039 0.004346527196125
178 1 1 -0.973837269494582 0.954717543906013 3.229082172871867 0.178959135344188 -1.970282558300870 -0.086589795523678
179 1 1 -1.671529881636631 1.756095814206738 3.232051310874746 0.081634329511188 -1.338246111979385 0.369379541182103
180 1 1 -1.729873147957842 2.359765960327364 -3.106629941928472 -0.236518295756623 -1.761918088485455 0.571515246527842
181 1 1 -1.119717652669791 3.086293729255175 -3.096174073724097 -1.018359388701929 -1.495499055544894 0.389061867550216
182 1 1 -1.092579305580422 2.363737551576689 -2.367344832988887 -0.248441593945734 -1.618424904568524 -0.234443317541886
183 1 1 -1.844752999660014 3.106409673071580 -2.373899978955024 -0.800785487196640 -1.160730818270643 0.374303898651205
184 1 1 -1.786929708514772 2.342365661423144 -1.656450676039454 -0.370787848460659 -1.286190941504008 0.097780883076688
185 1 1 -1.133174750118700 3.115993939722420 -1.591393222217024 -0.725485407577953 -0.693353741464012 0.614694654233251
186 1 1 -1.067514391697965 2.441358580576277 -0.930196552230135 -0.546143512099395 -1.080617516266408 0.223001671659368
187 1 1 -1.889862305791933 3.216573475075930 -0.972329698478155 -1.447632998709374 -0.223991555363433 0.213105243630947
188 1 1 -1.834005962567394 2.525865246809330 -0.321549811585640 -0.730490063735952 -0.317340988698523 -0.302505959266587
189 1 1 -1.160604739041708 3.202626653918175 -0.209803443893029 -1.080056557885240 -0.479559708569162 0.808704180163989
190 1 1 -1.101778174842371 2.455710334898005 0.462639791255131 -0.884371186899990 -0.811580118771368 0.811202394188346
191 1 1 -1.899665302056238 3.238073364577093 0.416050150104729 -1.073560327486051 -0.479287017133985 0.436199173362048
192 1 1 -1.833337305549960 2.513526568912436 1.144197380530136 -0.573543280076060 -0.367516157936719 1.057294838727710
193 1 1 -1.147713379330380 3.142957622141144 1.115278066232047 -0.743806639131662 -0.454552357091075 1.330930746309652
194 1 1 -1.017433625630686 2.397032875112591 1.856614427026593 -0.717673399860247 -0.901748540114066 0.716895271573732
195 1 1 -1.774137955163013 3.153438492342845 1.827073404848658 -0.441155595042792 -0.385998758385569 1.429451490142696
196 1 1 -1.682399074910599 2.455579732931159 2.561361367029172 -0.201106797242416 -1.065869833254406 1.217864474280848
197 1 1 -1.046125032327598 3.181910155024251 2.542959246168317 -0.579089693152689 -0.845327219709439 0.424598811396621
198 1 1 -0.991023717493805 2.325801658082483 3.227815082959383 -0.140097254858275 -1.538901682236653 0.304708144631925
199 1 1 -1.761427103879714 3.200113156457790 3.241120882792853 -0.336883033029659 -0.900159319772798 0.419433037974941
200 1 1 -0.375333229454133 -3.235232747051079 -3.084181979333851 0.119579000450331 -0.963884323471698 0.179498548951215
201 1 1 0.411296306707665 -2.435609563463357 -3.225280457722468 1.213025452470832 -0.288553665909901 -0.179113825491644
202 1 1 0.404350245113692 -3.160938022079999 -2.401080380558305 0.822548552087893 -0.119001802914892 0.365020896028847
203 1 1 -0.402147150568965 -2.465042292262847 -2.418000040737300 0.199480828692161 -0.807375846898483 0.015956198335033
204 1 1 -0.418536992330346 -3.178488883733283 -1.653848603332786 -0.116623288116215 -0.690134037472682 0.729925052347936
205 1 1 0.273531832498160 -2.469738682517483 -1.795113384221849 0.312058980058753 0.225040764344430 0.020611435089052
206 1 1 0.343792852575934 -3.156576623960966 -0.933662550293129 0.414026145513488 0.030686385200908 0.194860714223526
207 1 1 -0.449444960589775 -2.430517510064526 -0.994262047797921 -0.032141351448027 -0.217673134638652 0.219943936523417
208 1 1 -0.465272615940599 -3.175028051752878 -0.228254220442105 -0.132548849493391 -0.158973456836638 0.774308516959923
209 1 1 0.338522217805702 -2.434296759730922 -0.391711672796075 0.227369693432147 0.211831748659826 -0.503048686912673
210 1 1 0.323470400209066 -3.192519971826957 0.331878858137574 0.103666245176843 -0.054163415618140 -0.293120116145692
211 1 1 -0.391077950810169 -2.456369532961526 0.305479936585869 0.432730035761194 -0.323809004161793 -0.177073654548604
212 1 1 -0.374375750886009 -3.201565630099626 1.085831056921132 -0.231445251747582 -0.445543589427602 0.483753731220427
213 1 1 0.400426122776029 -2.452780095582745 0.946595612160810 0.418720589803383 0.442268928978159 -0.435544207485552
214 1 1 0.359114756311706 -3.148197805008353 1.777356166554610 0.470250585242891 0.026855168614638 0.245292321575154
215 1 1 -0.344887500340739 -2.422608016457642 1.700772315816526 0.340820292353524 0.120957125982891 -0.180286943186928
216 1 1 -0.391426753539478 -3.210584820609070 2.539487062287197 0.171611539916937 -0.387190611313579 0.115148347511220
217 1 1 0.398354499218864 -2.472062660343241 2.416750784345716 1.109915446338823 0.172968335530674 -0.320292238320722
218 1 1 0.422961858701054 -3.188772967459902 3.181834654646472 0.932254841496262 -0.299710156911117 0.026722653779635
219 1 1 -0.342950682458217 -2.545866437611414 3.206252449541736 0.791052664818144 -0.842102018358401 0.322226537076106
220 1 1 -0.428457386899912 -1.738739810736163 -3.237197068772507 -0.150715324268042 -1.290149744414704 -1.059567433785768
221 1 1 0.331084851248512 -1.020210544710033 -3.286926649593517 -0.334607838721530 -0.384286589806501 -0.580850884752630
222 1 1 0.284423572391914 -1.744394326209296 -2.582612168251395 -0.026432661077969 0.431423317362689 -0.470083023723224
223 1 1 -0.447769737194029 -1.057422473386399 -2.525650213256317 -0.592704259938948 -1.002029953172437 0.137728993032375
224 1 1 -0.482242416214264 -1.739411217727945 -1.768324932108500 -0.514084715214620 -0.616104928073148 -0.102737601424772
225 1 1 0.329782131979653 -1.052759984824779 -1.829951093243378 -0.436015024616283 -0.104283622861674 -0.526293273896779
226 1 1 0.336608278797124 -1.767662583725564 -1.081818079690785 0.026951737526456 -0.107881684949462 -0.573695144916925
227 1 1 -0.419914896248922 -1.007330843793372 -1.093194761304183 -0.284983593375468 0.149441466888014 -0.860518374823752
228 1 1 -0.421199712159019 -1.671173955702143 -0.407069753084693 -0.015431645782680 0.151900696852043 -0.810809284993867
229 1 1 0.335313372615523 -1.084396796432092 -0.442530120227007 -0.149502123859929 0.144516869795230 -0.804922251976904
230 1 1 0.337896516965215 -1.786828415471623 0.203533357850978 0.347646883996043 -0.306396432843398 -0.557741960490736
231 1 1 -0.432369327515832 -1.083731646781479 0.278934003444026 -0.343947705037258 -0.135791453897226 -0.704210927015991
232 1 1 -0.427268235239699 -1.737459153113709 0.965671757813299 -0.187093634984865 0.230755219035825 -0.214525950792944
233 1 1 0.409720234032151 -1.055663359405160 0.963064948214962 0.331215749857944 0.325691137029546 -0.624053221178312
234 1 1 0.360974828680216 -1.779993625068411 1.705574512180184 1.006587969659579 -0.061297184998820 -0.344589949900883
235 1 1 -0.310397504068021 -1.092308109524634 1.736499575154201 0.297648558901103 -0.505634539480033 -0.297518427096719
236 1 1 -0.380513441298269 -1.799490434574304 2.492319509259699 0.874404268384447 -0.732967377925213 -0.112212643719611
237 1 1 0.430434646922476 -1.051080398885227 2.377515642647318 0.671362648555926 -0.494904833871560 -0.551842153500181
238 1 1 0.397015808858783 -1.752230279946241 3.054906674431249 0.847408190128594 -0.591376293086688 -0.736834228141854
239 1 1 -0.368768791658995 -1.072135600163183 3.147666964740772 -0.211704036051365 -1.000168592477263 -0.820439008992577
240 1 1 -0.360620360771788 -0.348707137286079 -3.229046132278316 -0.534618975227634 -0.793884123987380 -0.123535436833893
241 1 1 0.447256535275712 0.328885237423695 -3.198990275692475 0.413434497824651 -0.503170394359223 -0.670606484430294
242 1 1 0.317867841746833 -0.354313605672170 -2.507592471973254 -0.500234876204115 -0.019142425553186 -0.431388203065508
243 1 1 -0.387418232423472 0.306747329327990 -2.530301477203136 -0.367595241570960 -0.309528933700989 -0.604629353336501
244 1 1 -0.473936023445609 -0.371860964623415 -1.778954371933141 -0.574725113942334 -0.196416934313179 -0.497494964078481
245 1 1 0.406043788680195 0.221769608055751 -1.775688427973758 0.546698971960655 -0.514330841757557 -1.029704665485512
246 1 1 0.370478948735683 -0.412444872655566 -1.076709930830458 0.169931251639055 -0.605040270961885 -0.983292087599005
247 1 1 -0.331792301966181 0.275525229954566 -1.047081620564331 0.747977377028669 -0.619062510287891 -0.920268488827383
248 1 1 -0.374331308305820 -0.348714020815246 -0.387153556909917 0.083859598033925 -0.021675565954533 -0.703595584867194