ITEM: TIMESTEP
90
ITEM: NUMBER OF ATOMS
500
ITEM: BOX BOUNDS pp pp pp
-3.535000000000000 3.535000000000000
-3.535000000000000 3.535000000000000
-3.535000000000000 3.535000000000000
ITEM: ATOMS id mol type x y z vx vy vz
0 1 1 -3.154012656444994 -3.153733651988447 -3.252204789458570 0.893128046814513 -0.365400714029088 -0.855233522990502
1 1 1 -2.528809129138084 -2.451105113268564 -3.266943149464288 1.008333378426743 -0.275271180868307 -0.563609405566376
2 1 1 -2.498909514390367 -3.218484875066226 -2.499889012656107 0.508060150316302 -0.586749567243194 -0.450664843565644
3 1 1 -3.171967775891994 -2.492027091012634 -2.544405200149242 0.923165253112530 -0.002478001260505 -0.977837571904650
4 1 1 -3.187279771039062 -3.242070090196274 -1.806197352500683 0.719863415308262 -0.598845187592407 -0.874550482188168
5 1 1 -2.621516254891025 -2.535216623694072 -1.723477618772870 0.067519511839873 -0.840901285139675 -0.010341564301453
6 1 1 -2.620649034183802 -3.103274100593262 -1.065941842355813 -0.323868176695056 0.150340794380681 -0.495214067169081
7 1 1 -3.338471413734258 -2.528659987764390 -1.082427715583584 0.125341824652152 -0.391743132568307 -0.785312134524748
8 1 1 -3.324622298127777 -3.096047813620624 -0.435924906795837 0.157010940292390 0.190039529978057 -1.415471919168247
9 1 1 -2.672750674366072 -2.415593920269798 -0.381118061245422 0.351924912457956 0.315187034885619 -0.148194400490736
10 1 1 -2.653527980850488 -3.111396548796002 0.282673324599127 0.156111890636161 0.227294089403002 -0.345535360277037
11 1 1 -3.314390002273119 -2.399543362345611 0.192858164616886 0.947864319945902 0.775291453642486 -0.548142246577530
12 1 1 -3.285796543217502 -3.117902924120584 0.902559657412195 0.434227509603315 0.692473159245790 -0.346955912776065
13 1 1 -2.593920027779658 -2.370063821026353 0.917415949382026 0.791556551217937 0.889813702736547 -0.282397366207065
14 1 1 -2.476739047951297 -3.097424527739808 1.676284611859385 0.808510166565711 0.551081462426352 0.593219097513395
15 1 1 -3.213856180673379 -2.346180628648137 1.591718846946014 1.288841768047448 0.841523096776898 -0.690957094176934
16 1 1 -3.114417561539841 -3.099303903443047 2.369530478156087 1.288421450622039 0.345352656025129 -0.226616352274815
17 1 1 -2.508767130661263 -2.359585021096655 2.461191329171962 1.187579731538499 0.619153781213803 0.148320405222893
18 1 1 -2.468589063472333 -3.111958539013151 3.159289040894806 0.982370290242341 -0.151729071408994 -0.406996077858523
19 1 1 -3.172128957958676 -2.369813745349668 3.122689810378275 1.072681746342342 0.550344417206060 -0.587607002117511
20 1 1 -3.171738446350874 -1.705475256359988 -3.227830639924398 0.963597602690379 -0.060796089788494 -0.643126354679852
21 1 1 -2.551871747077930 -1.018263540873545 -3.182836973490595 1.300395126144765 -0.154387512196562 0.054451497381854
22 1 1 -2.557336542474476 -1.782925171687364 -2.454713911682071 0.541919521915868 -0.281421178037492 0.148463954274713
23 1 1 -3.277067271049409 -1.005723772937785 -2.428636241367051 1.190157219898564 -0.037416580875095 -0.269515717839482
24 1 1 -3.324389202752299 -1.807636505334292 -1.721035053498281 0.076413066462881 -0.211120989555874 -0.055069625922051
25 1 1 -2.648594332325636 -1.095458651918934 -1.732899678128020 0.632259299276395 -0.200377061926007 0.239742314982165
26 1 1 -2.675550241030551 -1.758182744215932 -1.033190169536482 0.416014031017889 0.254597291287553 -0.502677185334913
27 1 1 -3.329229025430620 -1.002428336192776 -1.125807935904253 1.606689845169745 0.185894314287020 -0.865247213560530
28 1 1 -3.347605386694418 -1.676695456094696 -0.479297213810141 0.755932507177397 0.468644178681984 -1.051132979962271
29 1 1 -2.672239997927964 -0.958548207358254 -0.460425412317307 0.747168884967409 1.121615139935471 -0.126934593039181
30 1 1 -2.659268908629197 -1.663840380261989 0.195552755998353 0.734927616774961 1.193177175997150 -0.461493996890032
31 1 1 -3.361554831911136 -0.966772163571400 0.196799902428396 1.084295776119355 1.706624012625690 -0.693146021665171
32 1 1 -3.327361502202616 -1.652866785710618 0.841855136922014 1.130020923832285 1.320568045345290 -0.993882235078158
33 1 1 -2.558270498959651 -0.883579301351290 0.994650685037230 1.161687469974584 1.385381829736656 -0.201504715322710
34 1 1 -2.553938376266087 -1.676793240673057 1.721443841748319 1.235660664370261 1.241939145476387 0.176104162377531
35 1 1 -3.228407119201413 -0.871108479083857 1.696778407965112 1.683641806858883 1.102998257563404 -0.532663305172734
36 1 1 -3.182030838792303 -1.634372745879384 2.475438834539204 1.304435742637151 1.134758231459460 -0.325747124563288
37 1 1 -2.447226891330468 -0.960009455906537 2.499815076656458 2.224678065395149 0.602549542684077 0.057500553323157
38 1 1 -2.453384306580153 -1.695612327099168 3.134823570846922 1.603535630000599 0.135215367580581 -0.397958992220181
39 1 1 -3.198784579867179 -0.975859644945108 3.200189248757168 1.714065282894069 0.307371397809671 -0.538610525987270
40 1 1 -3.193045917624022 -0.245077232487649 -3.222295124594817 1.596972603108269 0.086395743027225 -0.527476176645113
41 1 1 -2.466164787657032 0.403519430884529 -3.234073134036970 1.077110972863036 -0.569325305034852 0.383558760729873
42 1 1 -2.529957616351753 -0.292871398056463 -2.489560085598989 1.232549203865411 -0.369731063805120 0.045566184394650
43 1 1 -3.120925398224243 0.443896680248806 -2.511298668619798 0.694196055433585 0.084978587043050 -0.080341200437574
44 1 1 -3.266409364125678 -0.326472353328619 -1.774300430681856 1.661681704641643 0.217742198695232 -0.381202043555892
45 1 1 -2.602113023991310 0.360056332565780 -1.755043269112998 0.575571446772324 0.296611071423331 0.397438795644288
46 1 1 -2.639705084576466 -0.248930600011289 -1.110045523189424 0.600051340002368 0.485251189266784 0.312451311810638
47 1 1 -3.238758015357919 0.380343624049039 -1.098300242811810 1.279046903809103 0.349688072136079 -0.367089271629695
48 1 1 -3.335773946353227 -0.269606639730665 -0.425399245270584 1.009302801744620 0.959566270899443 -0.927670806666667
49 1 1 -2.548162194943829 0.412828134997544 -0.403895155163907 1.239868879970548 0.609185740014728 -0.048505676051073
50 1 1 -2.542362733889272 -0.204357821210976 0.241173190976444 1.651815342994411 0.952602388353659 -0.087145848375044
51 1 1 -3.194450465491241 0.488942403187617 0.264350604741443 1.983755909338681 0.780419436015692 -0.600896656063616
52 1 1 -3.223837635966720 -0.129185110934002 1.023891457591343 1.958666997855577 1.214327926869990 -0.262318317053308
53 1 1 -2.512214089197367 0.482053968509268 1.005315456771681 1.148033568082188 0.711271442711625 0.150810600113381
54 1 1 -2.424663663696435 -0.243990165963430 1.820881513502926 2.085017657385350 1.212796621081782 0.129461976610372
55 1 1 -3.156235027784911 0.443006332418366 1.757793884995820 1.752105858892806 0.210258424374629 -0.067676792486888
56 1 1 -3.177176160810716 -0.233565316953639 2.542524944327042 2.057144646670645 0.335728810527007 -0.275252860951296
57 1 1 -2.452512277283573 0.429048043870853 2.391728817749760 1.364919555486676 0.178476891614445 0.403972514635925
58 1 1 -2.464086495568838 -0.276340906966117 3.087814238806554 1.712820109106326 0.020638257016743 0.071077418284995
59 1 1 -3.129302266209457 0.433086860516844 3.105985745901042 1.723477384883796 -0.361871215956547 -0.093564464797359
60 1 1 -3.125314347818459 1.085256853000780 -3.254735086757942 0.801358131790968 -0.791794834318457 -0.416795274964479
61 1 1 -2.380095538700353 1.720365400868453 -3.186324744508271 1.257315590058622 -1.049076170862151 0.001718855867329
62 1 1 -2.427507664636177 1.021006882943887 -2.450663390332606 1.900919599802134 -0.446641435243694 0.219665362571062
63 1 1 -3.086703428672422 1.774547851004265 -2.430173947964951 1.561732983318604 -1.017810098853668 -0.323834619877087
64 1 1 -3.160865500497483 0.960573383275763 -1.746095684024304 1.675950456093338 -0.484200963754427 -0.075714682823311
65 1 1 -2.477607110723854 1.658689513970482 -1.684743537621574 1.064882279338788 -1.091013278487470 0.154901094342198
66 1 1 -2.504797692831007 1.018082793233792 -1.017292613579500 1.234458844593671 -0.612607684109220 -0.141843267384993
67 1 1 -3.184067553329919 1.652102746710985 -1.011243160794111 1.448008682484278 -1.262775815619790 -0.497470251102289
68 1 1 -3.228918990436383 1.074919826242205 -0.385301039217388 1.289868559518902 -0.369757436804500 -0.614936041265203
69 1 1 -2.440799662463809 1.744663750919614 -0.377120683402315 0.665801083243951 -0.769930356991461 -0.265746550105352
70 1 1 -2.466541541430948 1.118154197542969 0.283749139980871 1.641338309947271 0.009901616874815 -0.471762387697128
71 1 1 -3.215473710850861 1.777768710078721 0.266356280434738 1.412905216028731 -0.353950269897410 -0.952365841136528
72 1 1 -3.199267873952740 1.134348794415458 0.965845454349417 1.346049582941784 0.026606953646256 -0.642890645360823
73 1 1 -2.497595164605416 1.781273855884185 0.972913063250937 -0.083647238916462 -0.168863232107366 -0.564721275729622
74 1 1 -2.413900958544215 1.123319770440227 1.691105457692226 1.082051401842222 0.120695053039605 -0.392748906099611
75 1 1 -3.172639381042180 1.780792187474830 1.702190407737797 1.051234574274443 -0.513151635432368 -0.851311845762642
76 1 1 -3.099694201184822 1.090317469377840 2.381900974804546 1.670020454865194 -0.202146658689298 -0.523744425159876
77 1 1 -2.404258894240364 1.785311492084922 2.493621311060425 0.875434513608790 -0.543792805712159 0.140366286166055
78 1 1 -2.412070824092210 1.078288678630643 3.175909640688054 1.202089202485821 -0.939027130475300 0.059196460682446
79 1 1 -3.095422475595700 1.790354645532198 3.152337527409033 1.501489378848235 -0.606841976592383 0.356607405678016
80 1 1 -3.114580770309038 2.503996341516547 -3.133986554508549 0.928982140500811 -0.606362076999162 0.362874249519454
81 1 1 -2.440079677846873 3.187521597073167 -3.171469146118719 0.631663950233987 -0.935150746302085 -0.615755793891900
82 1 1 -2.453587026432964 2.407127152684392 -2.387407267327426 0.786792838150808 -0.863025693440531 -0.346054136680867
83 1 1 -3.140907985890165 3.143688456423818 -2.452472531322768 0.845202196987908 -0.072832482336764 -0.701920641245924
84 1 1 -3.193939257754141 2.306222024202468 -1.636206075273213 1.156027532944691 -1.064399832035203 -0.010515091201562
85 1 1 -2.560487736806409 3.061692538890635 -1.656378634727503 -0.256774335626425 -1.243223754532579 -0.235818757716027
86 1 1 -2.532512844246101 2.419412027549081 -1.044609335315157 -0.138733341681456 -0.798946352511206 -0.335160353092169
87 1 1 -3.228927754583207 3.121329534573933 -1.081625861055941 -0.370575677887743 -0.757351299782517 -1.169937820614296
88 1 1 -3.227493000387638 2.494469074990743 -0.382703393131052 0.028377906877285 -0.042120579058550 -1.155653663920023
89 1 1 -2.655359602598229 3.277488732760960 -0.326660444726534 -0.443380532416828 0.450670464343704 -0.408083592709456
90 1 1 -2.577490944705069 2.550444101978939 0.319197196749824 -0.184825831445147 -0.109123375913048 -0.570334776911018
91 1 1 -3.336820883005547 3.248381512670278 0.297354116781769 -0.183004188934502 0.533348777584230 -0.700261865327714
92 1 1 -3.255316556953306 2.521044263764449 1.024738576768984 0.063029040954478 -0.034877903012915 -0.573024607593631
93 1 1 -2.626602106792706 3.263119479253363 1.043760676042041 -0.257997796686524 0.427613616549709 -0.038460596432616
94 1 1 -2.525055443050890 2.528850198802489 1.813963983830546 0.814304468121344 0.058066937491717 0.516896700541949
95 1 1 -3.217844870586388 3.220192871838529 1.706463305628236 0.781965539412501 0.715072574575113 -0.373884732880877
96 1 1 -3.153006982330862 2.533341363527652 2.472021077431938 1.012820934289033 0.191385085987310 0.240505158977507
97 1 1 -2.403952970813692 3.205023091465142 2.490524249279001 0.866012451031632 -0.499586405050222 0.662050095298470
98 1 1 -2.383542372603902 2.459473016906221 3.213885581575866 0.693414752460823 -0.696100276367475 0.508185290740190
99 1 1 -3.093252724409975 3.247383929255167 3.162106803653542 0.959102122775425 -0.040860794054380 0.125437244949436
100 1 1 -1.801421997867062 -3.182986649722274 -3.196633611518565 0.698998915016399 -0.071146316460726 0.128457518466560
101 1 1 -1.108312196038931 -2.535781507155233 -3.086948025731669 0.962922948856793 -0.465957362624843 0.346518848651758
102 1 1 -1.145710624088178 -3.265267228789581 -2.295721898790814 0.175562599731098 -0.112184124042764 0.614340560214081
103 1 1 -1.872575865907779 -2.545415019988356 -2.364450628725291 0.133252325682392 -0.466286333763121 0.298439056723714
104 1 1 -1.912684276217119 -3.223616734340957 -1.678991586458756 -0.353135971818851 -0.119452769819096 0.726765159486087
105 1 1 -1.253937352998453 -2.533994047675209 -1.550812590399041 -0.465927330641613 -0.259630085978129 1.734120986105026
106 1 1 -1.186680055487346 -3.181227518263144 -0.877584740342817 -0.406062825676622 -0.231944962046394 1.034439367343390
107 1 1 -2.007344679305077 -2.476066749029097 -0.886361882163305 -0.171161364365964 -0.073793111378137 1.174787958534014
108 1 1 -1.925767483040468 -3.128992848430582 -0.281115199895341 0.125152721919588 0.247060871442869 0.835888167786494
109 1 1 -1.141519290121308 -2.380942507925901 -0.288751660856050 0.334568400388033 0.798382598548336 1.132109276547774
110 1 1 -1.213900863355275 -3.116828919924871 0.439957485882619 -0.185157667530449 0.620042588899810 1.198409167334308
111 1 1 -1.935994867523042 -2.377094930623220 0.311550020285535 0.370492374028330 0.755862976995247 0.370521831277851
112 1 1 -1.832874363916521 -3.113358512027427 1.069715217374467 0.309774823336596 1.011029143045143 1.182794102517208
113 1 1 -1.120849020836022 -2.467084858198966 1.070136363319854 0.581997533782337 0.254182226295315 0.846658821808519
114 1 1 -1.116770370444297 -3.164850499209414 1.805133026034702 0.060972359303283 0.376589731403466 0.204708744339843
115 1 1 -1.800986512019136 -2.373479245291530 1.792142959807327 1.136223444848755 0.748884757169242 1.032488075264539
116 1 1 -1.785222290045339 -3.093311544164353 2.517425471423030 0.710003938681732 0.128191625211153 0.349846464071157
117 1 1 -1.034719202064146 -2.476331354899164 2.510851396538234 1.329846611376304 0.213046583042996 0.082338197715918
118 1 1 -1.084589706098197 -3.252237072761410 3.208616418668598 1.012735154259670 -0.025879278285298 -0.055475036855167
119 1 1 -1.797944160857277 -2.458062555853348 3.163355084709298 1.186322390197870 0.241485634177287 -0.023076447062551
120 1 1 -1.832983473242934 -1.714275680395319 -3.145956625972128 0.979192093614512 -0.083115773678451 0.557961365242887
121 1 1 -1.169153747686776 -1.046589695752771 -3.204574751503094 0.658440507809434 -0.308422690485105 0.104125525357020
122 1 1 -1.221400681330236 -1.815477901175534 -2.417279275563063 0.563777609676545 -0.243007205318496 1.092548212062830
123 1 1 -1.891969358650319 -1.079366975929370 -2.397412256515252 0.489076599194379 -0.302056791551912 0.562581165538664
124 1 1 -2.002957485940466 -1.821685164819225 -1.605773084786280 0.134792750460067 -0.250456069294675 0.793624950520764
125 1 1 -1.246947897674162 -1.036513363169582 -1.755011135459455 -0.115681924036755 0.259725542070422 0.998002039078518
126 1 1 -1.192913420700229 -1.689570263564241 -1.067959695292541 0.061823968310491 0.479891016319683 0.619426147079297
127 1 1 -1.968876854726519 -0.950520570051618 -1.082233343783126 0.027692185101263 1.101660808085963 0.303029343387539
128 1 1 -1.906931147705530 -1.656838459959262 -0.418053188492285 0.427779118981105 1.333524752114657 0.469703530944173
129 1 1 -1.163961954940267 -0.891497131137212 -0.435849359125771 0.665189298559703 1.542396527883350 0.249166392143138
130 1 1 -1.172617366785835 -1.667545677126233 0.306789462817801 0.523214642104408 1.336838015887834 0.682312763873939
131 1 1 -1.855186900089353 -0.925414899622266 0.272601279165009 0.939906685926500 1.327757131499748 0.191268743376602
132 1 1 -1.830520636252392 -1.624350538407122 1.040941948671947 0.887101295889947 1.488945145928820 0.879532236324492
133 1 1 -1.104471094024365 -0.900720257040902 1.055362895338305 1.028046983428453 1.113549251843641 0.725964293626956
134 1 1 -1.076159584906222 -1.701967709206211 1.782631019348040 0.958667006637018 0.792416522451454 0.238122216242133
135 1 1 -1.753108783061425 -0.952664059446385 1.787621095984751 1.608499569228452 1.027555615817846 0.083574494187417
136 1 1 -1.728563504274715 -1.691944658598855 2.525610887460339 1.657455185988845 0.442505756121530 0.047399241575204
137 1 1 -1.044962350874212 -1.003765320546777 2.429163203199262 1.536215526983791 0.351410767907702 0.138823855398667
138 1 1 -1.054857119122548 -1.816944889006950 3.197465839250984 1.650751499207018 -0.433394107521447 0.547623261815058
139 1 1 -1.764580406894157 -0.982884861304323 3.154195996419985 1.763722805213394 -0.001156038490312 0.593608471668042
140 1 1 -1.855410572857808 -0.276015606906034 -3.195187258443288 0.759316372278467 0.098944992693695 0.434079310531806
141 1 1 -1.078887722552876 0.326290338766267 -3.130076996199101 0.741572035589206 -0.526585026254150 0.649734446679207
142 1 1 -1.151628762169987 -0.347966103453659 -2.468263801047227 0.053989029418652 -0.412148127286792 1.013662920757599
143 1 1 -1.827101089990331 0.356180056005637 -2.434111259313039 0.709946570373814 -0.196316337020544 0.875206670872149
144 1 1 -1.916693756262332 -0.321243780369437 -1.756862862930910 0.671950467441479 0.457088758786463 0.552816418426708
145 1 1 -1.130265624152223 0.395508728696983 -1.738007442645746 -0.125803607857653 0.728069091064406 0.372813553294563
146 1 1 -1.155552773984824 -0.241708471334485 -1.058023197944336 0.411829525475688 1.069371297370602 0.016160867014227
147 1 1 -1.876823823914405 0.347163150268252 -1.068483125765533 0.548547498597149 0.494760694592364 0.269275457396259
148 1 1 -1.877219422939965 -0.262790298264035 -0.430937810261905 0.998372502411370 1.243774249003872 0.313196968268389
149 1 1 -1.032202589044643 0.433561802499013 -0.345073381474068 0.903775691655437 0.752976210998919 0.542278716456688
150 1 1 -1.077046074666714 -0.206022232629875 0.342499961007743 1.039927700185143 0.728890740788836 0.588859779019641
151 1 1 -1.762980032296305 0.476527671838877 0.330431877742431 1.568588636937354 0.680494528850024 0.629575820730804
152 1 1 -1.788128463571312 -0.190310616365834 1.051618376778446 1.510726986472328 1.063013275423411 0.898831545202104
153 1 1 -1.035159346431808 0.397035792275734 1.077181949603138 0.755225473701019 0.425362485863219 0.639506223628896
154 1 1 -1.053091481101954 -0.249535944348145 1.760644270609087 1.228820232878249 0.302133150463924 0.115702464830595
155 1 1 -1.766092894530878 0.449814863846075 1.776961784204274 0.992940054845023 -0.146562004596560 0.409761450458771
156 1 1 -1.748088530261733 -0.233009543913915 2.468551994522356 1.636834593875971 0.259293165043222 0.594841724420871
157 1 1 -1.062679651887518 0.358560170601883 2.445581180325542 0.959942394469063 -0.398857934081032 0.005896398798193
158 1 1 -1.083739179372736 -0.347897314148634 3.184904112034471 0.722496483292170 -0.412272380282109 -0.095502767012653
159 1 1 -1.799474591338133 0.427049224183432 3.123751643340752 1.009058861113427 -0.374803061337431 0.336811424666189
160 1 1 -1.699484707598204 1.018156865279454 -3.186509512709335 0.929667599346067 -0.948436580351214 0.476516215453986
161 1 1 -1.003922299685827 1.587551314573534 -3.168134265233137 0.313378867932228 -1.325229334211004 -0.003289647411723
162 1 1 -1.058772532580547 0.955868793420312 -2.487703543595060 0.080529358175053 -0.442880256262643 -0.261405765883242
163 1 1 -1.761781843096724 1.681680212489620 -2.397408479548639 0.406819620243264 -0.781344639812371 -0.173633332529740
164 1 1 -1.771650945998081 0.968548356640792 -1.706658195409457 0.629764086223519 -0.457746233969999 0.258133162802390
165 1 1 -1.058204480396174 1.603778740727620 -1.624147446356688 0.242935319307943 -1.025097383561109 0.421182871427614
166 1 1 -1.034204187626313 0.997663188952934 -0.993141011810510 0.793742772213545 -0.309396559464394 0.278093636144087
167 1 1 -1.775318433512196 1.738880061333022 -1.002693074093914 0.462757154338326 -0.842702754798132 0.268576236156045
168 1 1 -1.690931478154592 1.116738120656153 -0.393665852559678 0.972400792676964 -0.057654724729185 -0.048083523951379
169 1 1 -1.002539155922034 1.737869650608248 -0.279516185692394 0.295676242579497 -0.543005094004801 0.546805862903256
170 1 1 -1.016048076650147 1.030781681222112 0.365091843813748 0.552163339052424 -0.043490058788265 0.583193006434061
171 1 1 -1.808503957115545 1.841915813809759 0.339248001916370 -0.269251939634446 -0.158569000871312 0.411154739297812
172 1 1 -1.751481192460300 1.126226892754892 1.028149028642423 0.168426220548942 -0.182780126205057 0.151808271921264
173 1 1 -1.093866319018086 1.667618051446469 1.123534161432241 0.282074264004851 -0.852987578319532 0.692206187528940
174 1 1 -1.066910469601628 0.938161516392178 1.783104900003204 0.523134610544823 -0.756182614684922 0.296061152131791
175 1 1 -1.767486259395485 1.762495438749248 1.831546406192591 0.698588373820479 -0.462399273319844 0.468386156076075
176 1 1 -1.728211839851076 1.073000901135066 2.449146736432091 0.781919536619381 -0.928031233015242 0.101507843774952
177 1 1 -1.001469146265622 1.691519258836154 2.543547299249932 0.493543361800409 -1.234832947073217 0.166341107910145
178 1 1 -0.977296425186224 0.923030234524449 3.238851688673442 0.801004239831413 -1.389823912587180 0.358264144341000
179 1 1 -1.676768329396738 1.732505233168048 3.245654087371030 0.775362032754041 -1.159472467249415 0.614744632560602
180 1 1 -1.746569339938753 2.334304166553629 -3.091437289626111 -0.011912384741833 -0.789101455665958 0.411035450731997
181 1 1 -1.142085197937059 3.061728559731228 -3.084679294580989 -0.133795615952065 -1.353023141084664 0.306357540427038
182 1 1 -1.110811993863875 2.344416216026775 -2.367379986814889 -0.036804582915446 -1.122656484983073 -0.008837932774415
183 1 1 -1.864299413150265 3.091798579284903 -2.366013845623698 0.061059640591725 -0.700386515437307 0.118161831856460
184 1 1 -1.808158585823520 2.327219069562763 -1.646550271053207 -0.130196526760482 -0.921852820178906 0.488174966285237
185 1 1 -1.156227326154766 3.113175730727108 -1.572003252073811 -0.519363750184152 -0.270032928278970 0.980960018219066
186 1 1 -1.089917898743260 2.431441518092925 -0.919434119374741 -0.467469585924912 -0.473348741045919 0.577800733547807
187 1 1 -1.927285542670440 3.221422704398916 -0.962468351540852 -1.148587037943375 0.138007884253588 0.588140272251590
188 1 1 -1.860606864760315 2.524845215211800 -0.323840483579428 -0.466837165553031 -0.094516020970465 -0.172657650619483
189 1 1 -1.192491871594021 3.203446159537412 -0.187471298795790 -0.566231860865881 -0.035994149902250 0.965247099428348
190 1 1 -1.128434338095639 2.449700139027729 0.484357056651253 -0.287971303463255 -0.247632409519568 0.861220515818590
191 1 1 -1.930851524976854 3.239646865925912 0.431299023926207 -0.615207009532016 0.228145436061100 0.738578388809859
192 1 1 -1.851754675618222 2.514395540226229 1.169166070708550 0.138854309357711 0.216718821250267 0.980415379297795
193 1 1 -1.168029449731622 3.141846615909265 1.150659466038664 -0.037384351855351 -0.064324404371115 1.629946339470841
194 1 1 -1.036008480338666 2.385923640626915 1.873676687064045 0.059167294761439 -0.463349165389668 0.458979080179169
195 1 1 -1.787812944370021 3.148607679133766 1.857005997803867 0.087915242672656 -0.171818583813234 1.232448301772472
196 1 1 -1.691177833650534 2.436988844667465 2.587855775808285 0.476964811139787 -1.026300256371283 1.120528114414741
197 1 1 -1.057858502160622 3.166609595298748 2.550350443955628 0.268927871452606 -0.703287430664863 -0.066917529653665
198 1 1 -1.002747466433983 2.300528220297319 3.235758966604402 0.355312940244786 -1.172591069333826 0.009118925375077
199 1 1 -1.772695607418367 3.183884853124614 3.248295023134297 0.059954352940361 -0.750180156807554 0.311404086295961
200 1 1 -0.374499553440394 -3.244766907740749 -3.079790053565308 0.771551016037664 -0.457170456537234 0.052622287400193
201 1 1 0.428642196611223 -2.430189749198919 -3.222583513790470 1.196612858099497 0.171398318441274 0.103395363101245
202 1 1 0.410707178283828 -3.155898084874179 -2.386922827494915 0.973897529761944 0.242037872205306 0.547028936608453
203 1 1 -0.411301099018449 -2.471828545738446 -2.410215107952420 0.246891872143033 -0.312600372111162 0.342005850190427
204 1 1 -0.429598312104123 -3.183626421154885 -1.632688452835042 0.110912956815234 -0.260410812742971 1.047021657011313
205 1 1 0.269214032515246 -2.453729548918866 -1.785623993314165 0.538327465741990 0.844629921943800 0.396612301223324
206 1 1 0.336769159388645 -3.144623050310952 -0.926746527906773 0.345540101999295 0.697578449452097 0.204264848657365
207 1 1 -0.462597796093324 -2.426648975002188 -0.984569933247872 0.202151414245313 0.099352015818309 0.494530387638971
208 1 1 -0.474298222615666 -3.170347119218426 -0.208250839182539 0.489240096275357 0.234283200986669 0.816079339510884
209 1 1 0.327686293371815 -2.418868115290745 -0.391268640622055 0.335465086926582 0.783163777004203 0.070949011796585
210 1 1 0.308655291269883 -3.182777734965547 0.327100910553473 -0.038587133321616 0.673706006641699 -0.670740094808573
211 1 1 -0.395772891545401 -2.451035036991458 0.312141328517970 0.456542854611386 0.236589214331639 0.127248712858060
212 1 1 -0.388284104422590 -3.202879859680987 1.095456307538911 0.120732851509785 -0.009359975427569 0.015591437844234
213 1 1 0.397654247195156 -2.436353213194514 0.943155241782633 0.687476816100734 0.916539767742535 -0.388792121848665
214 1 1 0.360778668550768 -3.142802697167241 1.782631045365769 0.675747786879367 0.372071262898970 -0.310203539536071
215 1 1 -0.344228382421620 -2.415366413597152 1.703152631634096 0.790321477748269 0.528278328082861 -0.094219297373957
216 1 1 -0.387649623687647 -3.214330025501875 2.537170653183146 0.830330752600250 -0.114567627629877 -0.644749444951104
217 1 1 0.414371203540161 -2.461121602248610 2.412135220082558 1.456907752891566 0.736137345130202 -0.589068945152359
218 1 1 0.436925366809553 -3.188096250063314 3.180483984463023 1.348529688180569 0.004400744454568 -0.300385577082293
219 1 1 -0.323170799069602 -2.552505346041485 3.214272709746347 1.867052937714534 -0.181987301634871 0.239304471775544
220 1 1 -0.432805120545207 -1.749831230037306 -3.250212248109888 0.889916461376550 -0.383598028734854 -0.647985135515935
221 1 1 0.318961628571836 -1.017026880380498 -3.290080458230695 0.458927632052839 0.399322420160534 -0.413881126348681
222 1 1 0.276776872391619 -1.724071592711083 -2.581338778337496 0.693558922216566 1.261504428080592 -0.050487842538466
223 1 1 -0.467314862228620 -1.063419925486629 -2.512836651478448 0.252023570121229 -0.176664271527555 0.433509177511535
224 1 1 -0.500217094238314 -1.733553394997366 -1.761654920905213 0.285516765299859 0.299497229453942 0.425097785692439
225 1 1 0.310018532084901 -1.039955638159692 -1.832146221510357 0.047209683361383 0.811227721627602 -0.170115302256354
226 1 1 0.324395897687632 -1.754735378154444 -1.089279111575435 0.403517347359753 0.893281883526187 -0.426172022246860
227 1 1 -0.433901557546415 -0.985767489094226 -1.095494601273943 0.515864445590540 1.234539236167934 -0.054050758318363
228 1 1 -0.429865475569064 -1.650883967794817 -0.408169991264785 0.709462620060263 1.133740689906456 0.073196870129756
229 1 1 0.324721475778742 -1.067646442825879 -0.450484806269984 0.459258445374073 1.017015283898309 -0.318782788337842
230 1 1 0.332858392924221 -1.776456456039571 0.201870981006365 0.522320479223502 0.714681925743735 -0.133816416734447
231 1 1 -0.442754017929499 -1.066966961461073 0.276177003293054 0.656892392888769 1.250148964063737 0.011381710422184
232 1 1 -0.433316573020529 -1.722575262742999 0.968993157592034 0.844965774585002 1.008701894246765 0.002377550664417
233 1 1 0.412050538278066 -1.032759823557966 0.954383229552130 1.208671574606700 1.555458132762901 -0.731471057506660
234 1 1 0.379460775064654 -1.767315244753088 1.700484758406860 1.839184815361570 1.077424607098921 -0.785790259167039
235 1 1 -0.302513092480360 -1.088137709162752 1.737108094179511 1.579697271129776 0.467768139478841 -0.287913589929672
236 1 1 -0.358821366287680 -1.801885337728640 2.494179735175092 2.128084788623028 0.112067059772171 0.010032373316207
237 1 1 0.447377330321501 -1.049480235818278 2.368301296607952 1.677519780720563 0.342043140092309 -1.039199290984281
238 1 1 0.418836368582170 -1.751771508274009 3.042182706524237 2.086122133259026 0.166341127071946 -0.943947943805816
239 1 1 -0.365048831275627 -1.078896431501327 3.138465106794963 1.471247507306394 -0.052743369487824 -0.506719648626154
240 1 1 -0.374060697468785 -0.356284446797306 -3.223208820148122 0.621024367358596 -0.143037844198151 0.052243800053613
241 1 1 0.443325703901503 0.319915548097120 -3.204937984869724 0.735397360188786 -0.341952864218751 -0.416018656817323
242 1 1 0.296484553537782 -0.345462952808161 -2.506215541322754 0.003877576349770 0.628153099167560 0.031123895206213
243 1 1 -0.410341747713522 0.313092459506188 -2.529838936587387 -0.139530553026318 0.337360994301123 0.121985882183753
244 1 1 -0.495426911939961 -0.357809726405422 -1.777595178795431 0.087352302755355 0.835113505985041 0.115713098525014
245 1 1 0.403815743237151 0.221181611340042 -1.784413076600572 0.573782628191422 0.296485420032037 -0.303197251639167
246 1 1 0.364663749260524 -0.409516331793762 -1.081517004452395 0.678939047397347 0.344908537950929 -0.041944121642042
247 1 1 -0.327496470515445 0.275631260946397 -1.048303357622202 1.085656450176308 0.058034838454107 0.143596493931076
248 1 1 -0.379520826903885 -0.333878059997430 -0.384226475199123 0.939395912757580 0.698601558358838 0.394605531961513
249 1 1 0.422567633066968 0.295910414099716 -0.336254972581488 1.210468340612449 0.467555850634360 -0.025852388852758
250 1 1 0.402449909380837 -0.411211334369041 0.280209593194808 1.082233167421956 0.887263524327396 -0.383441427977500